 vasp.5.4.4.18Apr17-6-g9f103f2a35 (build Feb 11 2022 15:03:27) complex          
  
 executed on             LinuxIFC date 2022.10.27  15:17:36
 running on    8 total cores
 distrk:  each k-point on    8 cores,    1 groups
 distr:  one band on NCORES_PER_BAND=   1 cores,    8 groups


--------------------------------------------------------------------------------------------------------


 INCAR:
 POTCAR:    PAW_PBE Zr_sv 04Jan2005               
 POTCAR:    PAW_PBE Al 04Jan2001                  

 ----------------------------------------------------------------------------- 
|                                                                             |
|           W    W    AA    RRRRR   N    N  II  N    N   GGGG   !!!           |
|           W    W   A  A   R    R  NN   N  II  NN   N  G    G  !!!           |
|           W    W  A    A  R    R  N N  N  II  N N  N  G       !!!           |
|           W WW W  AAAAAA  RRRRR   N  N N  II  N  N N  G  GGG   !            |
|           WW  WW  A    A  R   R   N   NN  II  N   NN  G    G                |
|           W    W  A    A  R    R  N    N  II  N    N   GGGG   !!!           |
|                                                                             |
|      For optimal performance we recommend to set                            |
|        NCORE= 4 - approx SQRT( number of cores)                             |
|      NCORE specifies how many cores store one orbital (NPAR=cpu/NCORE).     |
|      This setting can  greatly improve the performance of VASP for DFT.     |
|      The default,   NCORE=1            might be grossly inefficient         |
|      on modern multi-core architectures or massively parallel machines.     |
|      Do your own testing !!!!                                               |
|      Unfortunately you need to use the default for GW and RPA calculations. |
|      (for HF NCORE is supported but not extensively tested yet)             |
|                                                                             |
 ----------------------------------------------------------------------------- 

 POTCAR:    PAW_PBE Zr_sv 04Jan2005               
   VRHFIN =Zr: 4s4p5s4d                                                         
   LEXCH  = PE                                                                  
   EATOM  =  1284.2219 eV,   94.3876 Ry                                         
                                                                                
   TITEL  = PAW_PBE Zr_sv 04Jan2005                                             
   LULTRA =        F    use ultrasoft PP ?                                      
   IUNSCR =        1    unscreen: 0-lin 1-nonlin 2-no                           
   RPACOR =    2.200    partial core radius                                     
   POMASS =   91.224; ZVAL   =   12.000    mass and valenz                      
   RCORE  =    2.500    outmost cutoff radius                                   
   RWIGS  =    3.070; RWIGS  =    1.625    wigner-seitz radius (au A)           
   ENMAX  =  229.898; ENMIN  =  172.424 eV                                      
   ICORE  =        3    local potential                                         
   LCOR   =        T    correct aug charges                                     
   LPAW   =        T    paw PP                                                  
   EAUG   =  461.257                                                            
   DEXC   =    0.000                                                            
   RMAX   =    2.561    core radius for proj-oper                               
   RAUG   =    1.300    factor for augmentation sphere                          
   RDEP   =    2.597    radius for radial grids                                 
   RDEPT  =    2.007    core radius for aug-charge                              
                                                                                
   Atomic configuration                                                         
   11 entries                                                                   
     n  l   j            E        occ.                                          
     1  0  0.50    -17820.0161   2.0000                                         
     2  0  0.50     -2467.0882   2.0000                                         
     2  1  1.50     -2199.6095   6.0000                                         
     3  0  0.50      -402.4863   2.0000                                         
     3  1  1.50      -315.3675   6.0000                                         
     3  2  2.50      -172.4472  10.0000                                         
     4  0  0.50       -52.4146   2.0000                                         
     5  0  0.50        -3.8421   1.0000                                         
     4  1  1.50       -30.5054   6.0000                                         
     4  2  2.50        -2.3341   3.0000                                         
     4  3  2.50        -1.3606   0.0000                                         
   Description                                                                  
     l       E           TYP  RCUT    TYP  RCUT                                 
     0    -52.4145962     23  2.200                                             
     0     -3.8421270     23  2.500                                             
     1    -30.5053914     23  2.200                                             
     1     20.4087390     23  2.200                                             
     2     -2.3340816     23  2.500                                             
     2     -0.6120942     23  2.500                                             
     3     -4.0817478     23  2.500                                             
  local pseudopotential read in
  partial core-charges read in
  partial kinetic energy density read in
  atomic valenz-charges read in
  non local Contribution for L=           0  read in
    real space projection operators read in
  non local Contribution for L=           0  read in
    real space projection operators read in
  non local Contribution for L=           1  read in
    real space projection operators read in
  non local Contribution for L=           1  read in
    real space projection operators read in
  non local Contribution for L=           2  read in
    real space projection operators read in
  non local Contribution for L=           2  read in
    real space projection operators read in
    PAW grid and wavefunctions read in
 
   number of l-projection  operators is LMAX  =           6
   number of lm-projection operators is LMMAX =          18
 
 POTCAR:    PAW_PBE Al 04Jan2001                  
   VRHFIN =Al: s2p1                                                             
   LEXCH  = PE                                                                  
   EATOM  =    53.5387 eV,    3.9350 Ry                                         
                                                                                
   TITEL  = PAW_PBE Al 04Jan2001                                                
   LULTRA =        F    use ultrasoft PP ?                                      
   IUNSCR =        1    unscreen: 0-lin 1-nonlin 2-no                           
   RPACOR =    1.500    partial core radius                                     
   POMASS =   26.981; ZVAL   =    3.000    mass and valenz                      
   RCORE  =    1.900    outmost cutoff radius                                   
   RWIGS  =    2.650; RWIGS  =    1.402    wigner-seitz radius (au A)           
   ENMAX  =  240.300; ENMIN  =  180.225 eV                                      
   ICORE  =        2    local potential                                         
   LCOR   =        T    correct aug charges                                     
   LPAW   =        T    paw PP                                                  
   EAUG   =  291.052                                                            
   DEXC   =    0.000                                                            
   RMAX   =    1.939    core radius for proj-oper                               
   RAUG   =    1.300    factor for augmentation sphere                          
   RDEP   =    1.966    radius for radial grids                                 
   RDEPT  =    1.856    core radius for aug-charge                              
                                                                                
   Atomic configuration                                                         
    6 entries                                                                   
     n  l   j            E        occ.                                          
     1  0  0.50     -1511.1048   2.0000                                         
     2  0  0.50      -108.1629   2.0000                                         
     2  1  1.50       -69.6402   6.0000                                         
     3  0  0.50        -7.7528   2.0000                                         
     3  1  1.50        -2.7121   1.0000                                         
     3  2  2.50        -2.7212   0.0000                                         
   Description                                                                  
     l       E           TYP  RCUT    TYP  RCUT                                 
     0     -7.7528455     23  1.900                                             
     0     -3.3096929     23  1.900                                             
     1     -2.7120682     23  1.900                                             
     1     13.6058260     23  1.900                                             
     2     -2.7211652      7  1.900                                             
  local pseudopotential read in
  partial core-charges read in
  partial kinetic energy density read in
  atomic valenz-charges read in
  non local Contribution for L=           0  read in
    real space projection operators read in
  non local Contribution for L=           0  read in
    real space projection operators read in
  non local Contribution for L=           1  read in
    real space projection operators read in
  non local Contribution for L=           1  read in
    real space projection operators read in
    PAW grid and wavefunctions read in
 
   number of l-projection  operators is LMAX  =           4
   number of lm-projection operators is LMMAX =           8
 
  PAW_PBE Zr_sv 04Jan2005               :
 energy of atom  1       EATOM=-1284.2219
 kinetic energy error for atom=    0.0043 (will be added to EATOM!!)
  PAW_PBE Al 04Jan2001                  :
 energy of atom  2       EATOM=  -53.5387
 kinetic energy error for atom=    0.0002 (will be added to EATOM!!)
 
 
 POSCAR: Zr2 Al3                                 
  positions in direct lattice
  No initial velocities read in
 exchange correlation table for  LEXCH =        8
   RHO(1)=    0.500       N(1)  =     2000
   RHO(2)=  100.500       N(2)  =     4000
 


--------------------------------------------------------------------------------------------------------


 ion  position               nearest neighbor table
   1  0.787  0.787  0.574-   5 2.99   5 2.99   5 2.99   5 2.99   4 3.18   2 3.22   2 3.22   2 3.22
                             2 3.22
   2  0.413  0.413  0.826-   3 2.99   3 2.99   3 2.99   3 2.99   4 3.18   1 3.22   1 3.22   1 3.22
                             1 3.22
   3  0.017  0.017  0.034-   4 2.79   4 2.79   4 2.79   4 2.79   5 2.82   2 2.99   2 2.99   2 2.99
                             2 2.99
   4  0.600  0.600  0.200-   5 2.79   3 2.79   5 2.79   5 2.79   3 2.79   3 2.79   5 2.79   3 2.79
                             1 3.18   2 3.18
   5  0.183  0.183  0.366-   4 2.79   4 2.79   4 2.79   4 2.79   3 2.82   1 2.99   1 2.99   1 2.99
                             1 2.99
 
  LATTYP: Found a body centered tetragonal cell.
 ALAT       =     3.4014498400
 C/A-ratio  =     5.0000000000
  
  Lattice vectors:
  
 A1 = (   1.7007249200,  -1.7007249200,  -8.5036246000)
 A2 = (  -1.7007249200,   1.7007249200,  -8.5036246000)
 A3 = (   1.7007249200,   1.7007249200,   8.5036246000)


Analysis of symmetry for initial positions (statically):
=====================================================================
 Subroutine PRICEL returns:
 Original cell was already a primitive cell.
 

 Routine SETGRP: Setting up the symmetry group for a 
 body centered tetragonal supercell.


 Subroutine GETGRP returns: Found 16 space group operations
 (whereof  8 operations were pure point group operations)
 out of a pool of 16 trial point group operations.


The static configuration has the point symmetry C_4v.
 The point group associated with its full space group is D_4h.


Analysis of symmetry for dynamics (positions and initial velocities):
=====================================================================
 Subroutine PRICEL returns:
 Original cell was already a primitive cell.
 

 Routine SETGRP: Setting up the symmetry group for a 
 body centered tetragonal supercell.


 Subroutine GETGRP returns: Found 16 space group operations
 (whereof  8 operations were pure point group operations)
 out of a pool of 16 trial point group operations.


The dynamic configuration has the point symmetry C_4v.
 The point group associated with its full space group is D_4h.


 Subroutine INISYM returns: Found 16 space group operations
 (whereof  8 operations are pure point group operations),
 and found     1 'primitive' translations

 
 
 KPOINTS: pymatgen with grid density = 1513 / numb

Automatic generation of k-mesh.
Space group operators:
 irot       det(A)        alpha          n_x          n_y          n_z        tau_x        tau_y        tau_z
    1     1.000000     0.000001     1.000000     0.000000     0.000000     0.000000     0.000000     0.000000
    2     1.000000    90.000000     0.000000     0.000000     1.000000     0.000000     0.000000     0.000000
    3     1.000000   180.000000     0.000000     0.000000     1.000000     0.000000     0.000000     0.000000
    4     1.000000    90.000000     0.000000     0.000000    -1.000000     0.000000     0.000000     0.000000
    5    -1.000000   180.000000     1.000000     0.000000     0.000000     0.000000     0.000000     0.000000
    6    -1.000000   180.000000     0.707107     0.707107     0.000000     0.000000     0.000000     0.000000
    7    -1.000000   180.000000     0.000000     1.000000     0.000000     0.000000     0.000000     0.000000
    8    -1.000000   180.000000     0.707107    -0.707107     0.000000     0.000000     0.000000     0.000000
    9    -1.000000     0.000001     1.000000     0.000000     0.000000     0.200000     0.200000     0.400000
   10    -1.000000    90.000000     0.000000     0.000000     1.000000     0.200000     0.200000     0.400000
   11    -1.000000   180.000000     0.000000     0.000000     1.000000     0.200000     0.200000     0.400000
   12    -1.000000    90.000000     0.000000     0.000000    -1.000000     0.200000     0.200000     0.400000
   13     1.000000   180.000000     1.000000     0.000000     0.000000     0.200000     0.200000     0.400000
   14     1.000000   180.000000     0.707107     0.707107     0.000000     0.200000     0.200000     0.400000
   15     1.000000   180.000000     0.000000     1.000000     0.000000     0.200000     0.200000     0.400000
   16     1.000000   180.000000     0.707107    -0.707107     0.000000     0.200000     0.200000     0.400000
 
 Subroutine IBZKPT returns following result:
 ===========================================
 
 Found     54 irreducible k-points:
 
 Following reciprocal coordinates:
            Coordinates               Weight
  0.000000  0.000000  0.000000      1.000000
  0.111111  0.000000  0.000000      4.000000
  0.222222  0.000000  0.000000      4.000000
  0.333333  0.000000  0.000000      8.000000
  0.444444  0.000000  0.000000      4.000000
  0.111111  0.111111  0.000000      2.000000
  0.222222  0.111111 -0.000000      8.000000
  0.333333  0.111111  0.000000      8.000000
  0.444444  0.111111 -0.000000      4.000000
 -0.444444  0.111111  0.000000      8.000000
 -0.333333  0.111111  0.000000      8.000000
 -0.222222  0.111111  0.000000      4.000000
 -0.111111  0.111111  0.000000      2.000000
  0.222222  0.222222  0.000000      2.000000
  0.333333  0.222222  0.000000      8.000000
  0.444444  0.222222 -0.000000      8.000000
 -0.444444  0.222222  0.000000      4.000000
 -0.333333  0.222222 -0.000000      8.000000
 -0.222222  0.222222  0.000000      2.000000
  0.333333  0.333333  0.000000      8.000000
  0.444444  0.333333  0.000000      8.000000
 -0.444444  0.333333  0.000000      8.000000
 -0.333333  0.333333  0.000000      4.000000
  0.444444  0.444444  0.000000      2.000000
 -0.444444  0.444444  0.000000      2.000000
  0.000000  0.000000  0.333333      2.000000
  0.111111  0.000000  0.333333      4.000000
  0.222222  0.000000  0.333333      4.000000
  0.333333  0.000000  0.333333      4.000000
  0.444444  0.000000  0.333333      4.000000
 -0.444444  0.000000  0.333333      4.000000
 -0.222222  0.000000  0.333333      4.000000
 -0.111111  0.000000  0.333333      4.000000
  0.111111  0.111111  0.333333      2.000000
  0.222222  0.111111  0.333333      4.000000
  0.333333  0.111111  0.333333      8.000000
  0.444444  0.111111  0.333333      4.000000
 -0.222222  0.111111  0.333333      4.000000
 -0.111111  0.111111  0.333333      4.000000
  0.222222  0.222222  0.333333      2.000000
  0.333333  0.222222  0.333333      8.000000
 -0.444444  0.222222  0.333333      4.000000
 -0.222222  0.222222  0.333333      4.000000
 -0.111111  0.222222  0.333333      4.000000
  0.444444  0.333333  0.333333      8.000000
  0.444444  0.444444  0.333333      2.000000
 -0.444444  0.444444  0.333333      4.000000
 -0.222222  0.444444  0.333333      4.000000
 -0.111111  0.444444  0.333333      4.000000
 -0.444444 -0.444444  0.333333      2.000000
 -0.222222 -0.444444  0.333333      4.000000
 -0.111111 -0.444444  0.333333      4.000000
 -0.222222 -0.222222  0.333333      2.000000
 -0.111111 -0.111111  0.333333      2.000000
 
 Following cartesian coordinates:
            Coordinates               Weight
  0.000000  0.000000  0.000000      1.000000
  0.000000 -0.032666 -0.006533      4.000000
  0.000000 -0.065332 -0.013066      4.000000
  0.000000 -0.097997 -0.019599      8.000000
  0.000000 -0.130663 -0.026133      4.000000
 -0.032666 -0.032666 -0.013066      2.000000
 -0.032666 -0.065332 -0.019599      8.000000
 -0.032666 -0.097997 -0.026133      8.000000
 -0.032666 -0.130663 -0.032666      4.000000
 -0.032666  0.130663  0.019599      8.000000
 -0.032666  0.097997  0.013066      8.000000
 -0.032666  0.065332  0.006533      4.000000
 -0.032666  0.032666  0.000000      2.000000
 -0.065332 -0.065332 -0.026133      2.000000
 -0.065332 -0.097997 -0.032666      8.000000
 -0.065332 -0.130663 -0.039199      8.000000
 -0.065332  0.130663  0.013066      4.000000
 -0.065332  0.097997  0.006533      8.000000
 -0.065332  0.065332  0.000000      2.000000
 -0.097997 -0.097997 -0.039199      8.000000
 -0.097997 -0.130663 -0.045732      8.000000
 -0.097997  0.130663  0.006533      8.000000
 -0.097997  0.097997  0.000000      4.000000
 -0.130663 -0.130663 -0.052265      2.000000
 -0.130663  0.130663  0.000000      2.000000
  0.000000  0.000000 -0.039199      2.000000
  0.000000 -0.032666 -0.045732      4.000000
  0.000000 -0.065332 -0.052265      4.000000
  0.000000 -0.097997 -0.058798      4.000000
  0.000000 -0.130663 -0.065332      4.000000
  0.000000  0.130663 -0.013066      4.000000
  0.000000  0.065332 -0.026133      4.000000
  0.000000  0.032666 -0.032666      4.000000
 -0.032666 -0.032666 -0.052265      2.000000
 -0.032666 -0.065332 -0.058798      4.000000
 -0.032666 -0.097997 -0.065332      8.000000
 -0.032666 -0.130663 -0.071865      4.000000
 -0.032666  0.065332 -0.032666      4.000000
 -0.032666  0.032666 -0.039199      4.000000
 -0.065332 -0.065332 -0.065332      2.000000
 -0.065332 -0.097997 -0.071865      8.000000
 -0.065332  0.130663 -0.026133      4.000000
 -0.065332  0.065332 -0.039199      4.000000
 -0.065332  0.032666 -0.045732      4.000000
 -0.097997 -0.130663 -0.084931      8.000000
 -0.130663 -0.130663 -0.091464      2.000000
 -0.130663  0.130663 -0.039199      4.000000
 -0.130663  0.065332 -0.052265      4.000000
 -0.130663  0.032666 -0.058798      4.000000
  0.130663  0.130663  0.013066      2.000000
  0.130663  0.065332  0.000000      4.000000
  0.130663  0.032666 -0.006533      4.000000
  0.065332  0.065332 -0.013066      2.000000
  0.032666  0.032666 -0.026133      2.000000
 


--------------------------------------------------------------------------------------------------------




 Dimension of arrays:
   k-points           NKPTS =     54   k-points in BZ     NKDIM =     54   number of bands    NBANDS=     24
   number of dos      NEDOS =    301   number of ions     NIONS =      5
   non local maximal  LDIM  =      6   non local SUM 2l+1 LMDIM =     18
   total plane-waves  NPLWV =  54880
   max r-space proj   IRMAX =      1   max aug-charges    IRDMAX= 185734
   dimension x,y,z NGX =    28 NGY =   28 NGZ =   70
   dimension x,y,z NGXF=    56 NGYF=   56 NGZF=  140
   support grid    NGXF=   112 NGYF=  112 NGZF=  280
   ions per type =               2   3
   NGX,Y,Z   is equivalent  to a cutoff of  13.69, 13.69, 13.17 a.u.
   NGXF,Y,Z  is equivalent  to a cutoff of  27.37, 27.37, 26.34 a.u.

 SYSTEM =  unknown system                          
 POSCAR =  Zr2 Al3                                 

 Startparameter for this run:
   NWRITE =      2    write-flag & timer
   PREC   = accura    normal or accurate (medium, high low for compatibility)
   ISTART =      0    job   : 0-new  1-cont  2-samecut
   ICHARG =      2    charge: 1-file 2-atom 10-const
   ISPIN  =      1    spin polarized calculation?
   LNONCOLLINEAR =      F non collinear calculations
   LSORBIT =      F    spin-orbit coupling
   INIWAV =      1    electr: 0-lowe 1-rand  2-diag
   LASPH  =      T    aspherical Exc in radial PAW
   METAGGA=      F    non-selfconsistent MetaGGA calc.

 Electronic Relaxation 1
   ENCUT  =  520.0 eV  38.22 Ry    6.18 a.u.   6.32  6.32 16.43*2*pi/ulx,y,z
   ENINI  =  520.0     initial cutoff
   ENAUG  =  461.3 eV  augmentation charge cutoff
   NELM   =    100;   NELMIN=  5; NELMDL= -5     # of ELM steps 
   EDIFF  = 0.1E-06   stopping-criterion for ELM
   LREAL  =      F    real-space projection
   NLSPLINE    = F    spline interpolate recip. space projectors
   LCOMPAT=      F    compatible to vasp.4.4
   GGA_COMPAT  = T    GGA compatible to vasp.4.4-vasp.4.6
   LMAXPAW     = -100 max onsite density
   LMAXMIX     =    4 max onsite mixed and CHGCAR
   VOSKOWN=      0    Vosko Wilk Nusair interpolation
   ROPT   =    0.00000   0.00000
 Ionic relaxation
   EDIFFG = -.2E-02   stopping-criterion for IOM
   NSW    =    100    number of steps for IOM
   NBLOCK =      1;   KBLOCK =    100    inner block; outer block 
   IBRION =      2    ionic relax: 0-MD 1-quasi-New 2-CG
   NFREE  =      1    steps in history (QN), initial steepest desc. (CG)
   ISIF   =      3    stress and relaxation
   IWAVPR =     11    prediction:  0-non 1-charg 2-wave 3-comb
   ISYM   =      2    0-nonsym 1-usesym 2-fastsym
   LCORR  =      T    Harris-Foulkes like correction to forces

   POTIM  = 0.5000    time-step for ionic-motion
   TEIN   =    0.0    initial temperature
   TEBEG  =    0.0;   TEEND  =   0.0 temperature during run
   SMASS  =  -3.00    Nose mass-parameter (am)
   estimated Nose-frequenzy (Omega)   =  0.10E-29 period in steps =****** mass=  -0.264E-27a.u.
   SCALEE = 1.0000    scale energy and forces
   NPACO  =    256;   APACO  = 16.0  distance and # of slots for P.C.
   PSTRESS=    0.0 pullay stress

  Mass of Ions in am
   POMASS =  91.22 26.98
  Ionic Valenz
   ZVAL   =  12.00  3.00
  Atomic Wigner-Seitz radii
   RWIGS  =  -1.00 -1.00
  virtual crystal weights 
   VCA    =   1.00  1.00
   NELECT =      33.0000    total number of electrons
   NUPDOWN=      -1.0000    fix difference up-down

 DOS related values:
   EMIN   =  10.00;   EMAX   =-10.00  energy-range for DOS
   EFERMI =   0.00
   ISMEAR =     1;   SIGMA  =   0.10  broadening in eV -4-tet -1-fermi 0-gaus

 Electronic relaxation 2 (details)
   IALGO  =     38    algorithm
   LDIAG  =      T    sub-space diagonalisation (order eigenvalues)
   LSUBROT=      F    optimize rotation matrix (better conditioning)
   TURBO    =      0    0=normal 1=particle mesh
   IRESTART =      0    0=no restart 2=restart with 2 vectors
   NREBOOT  =      0    no. of reboots
   NMIN     =      0    reboot dimension
   EREF     =   0.00    reference energy to select bands
   IMIX   =      4    mixing-type and parameters
     AMIX     =   0.40;   BMIX     =  1.00
     AMIX_MAG =   1.60;   BMIX_MAG =  1.00
     AMIN     =   0.10
     WC   =   100.;   INIMIX=   1;  MIXPRE=   1;  MAXMIX= -45

 Intra band minimization:
   WEIMIN = 0.0010     energy-eigenvalue tresh-hold
   EBREAK =  0.10E-08  absolut break condition
   DEPER  =   0.30     relativ break condition  

   TIME   =   0.40     timestep for ELM

  volume/ion in A,a.u.               =      19.68       132.79
  Fermi-wavevector in a.u.,A,eV,Ry     =   1.137458  2.149484 17.603366  1.293811
  Thomas-Fermi vector in A             =   2.274163
 
 Write flags
   LWAVE        =      F    write WAVECAR
   LDOWNSAMPLE  =      F    k-point downsampling of WAVECAR
   LCHARG       =      T    write CHGCAR
   LVTOT        =      F    write LOCPOT, total local potential
   LVHAR        =      T    write LOCPOT, Hartree potential only
   LELF         =      F    write electronic localiz. function (ELF)
   LORBIT       =     11    0 simple, 1 ext, 2 COOP (PROOUT), +10 PAW based schemes


 Dipole corrections
   LMONO  =      F    monopole corrections only (constant potential shift)
   LDIPOL =      F    correct potential (dipole corrections)
   IDIPOL =      0    1-x, 2-y, 3-z, 4-all directions 
   EPSILON=  1.0000000 bulk dielectric constant

 Exchange correlation treatment:
   GGA     =    --    GGA type
   LEXCH   =     8    internal setting for exchange type
   VOSKOWN=      0    Vosko Wilk Nusair interpolation
   LHFCALC =     F    Hartree Fock is set to
   LHFONE  =     F    Hartree Fock one center treatment
   AEXX    =    0.0000 exact exchange contribution

 Linear response parameters
   LEPSILON=     F    determine dielectric tensor
   LRPA    =     F    only Hartree local field effects (RPA)
   LNABLA  =     F    use nabla operator in PAW spheres
   LVEL    =     F    velocity operator in full k-point grid
   LINTERFAST=   F  fast interpolation
   KINTER  =     0    interpolate to denser k-point grid
   CSHIFT  =0.1000    complex shift for real part using Kramers Kronig
   OMEGAMAX=  -1.0    maximum frequency
   DEG_THRESHOLD= 0.2000000E-02 threshold for treating states as degnerate
   RTIME   =   -0.100 relaxation time in fs
  (WPLASMAI=    0.000 imaginary part of plasma frequency in eV, 0.658/RTIME)
   DFIELD  = 0.0000000 0.0000000 0.0000000 field for delta impulse in time
 
 Orbital magnetization related:
   ORBITALMAG=     F  switch on orbital magnetization
   LCHIMAG   =     F  perturbation theory with respect to B field
   DQ        =  0.001000  dq finite difference perturbation B field
   LLRAUG    =     F  two centre corrections for induced B field



--------------------------------------------------------------------------------------------------------


 conjugate gradient relaxation of ions
 charge density and potential will be updated during run
 non-spin polarized calculation
 Variant of blocked Davidson
 Davidson routine will perform the subspace rotation
 perform sub-space diagonalisation
    after iterative eigenvector-optimisation
 modified Broyden-mixing scheme, WC =      100.0
 initial mixing is a Kerker type mixing with AMIX =  0.4000 and BMIX =      1.0000
 Hartree-type preconditioning will be used
 using additional bands            7
 reciprocal scheme for non local part
 use partial core corrections
 calculate Harris-corrections to forces 
   (improved forces if not selfconsistent)
 use gradient corrections 
 use of overlap-Matrix (Vanderbilt PP)
 Methfessel and Paxton  Order N= 1 SIGMA  =   0.10


--------------------------------------------------------------------------------------------------------


  energy-cutoff  :      520.00
  volume of cell :       98.39
      direct lattice vectors                 reciprocal lattice vectors
     0.000000000 -3.401449840  0.000000000     0.000000000 -0.293992282 -0.058798456
    -3.401449840  0.000000000  0.000000000    -0.293992282  0.000000000 -0.058798456
     1.700724920  1.700724920 -8.503624600     0.000000000  0.000000000 -0.117596913

  length of vectors
     3.401449840  3.401449840  8.837225913     0.299814476  0.299814476  0.117596913


 
 k-points in units of 2pi/SCALE and weight: pymatgen with grid density = 1513 / numb
   0.00000000  0.00000000  0.00000000       0.004
   0.00000000 -0.03266581 -0.00653316       0.016
   0.00000000 -0.06533162 -0.01306632       0.016
   0.00000000 -0.09799743 -0.01959949       0.033
   0.00000000 -0.13066324 -0.02613265       0.016
  -0.03266581 -0.03266581 -0.01306632       0.008
  -0.03266581 -0.06533162 -0.01959949       0.033
  -0.03266581 -0.09799743 -0.02613265       0.033
  -0.03266581 -0.13066324 -0.03266581       0.016
  -0.03266581  0.13066324  0.01959949       0.033
  -0.03266581  0.09799743  0.01306632       0.033
  -0.03266581  0.06533162  0.00653316       0.016
  -0.03266581  0.03266581  0.00000000       0.008
  -0.06533162 -0.06533162 -0.02613265       0.008
  -0.06533162 -0.09799743 -0.03266581       0.033
  -0.06533162 -0.13066324 -0.03919897       0.033
  -0.06533162  0.13066324  0.01306632       0.016
  -0.06533162  0.09799743  0.00653316       0.033
  -0.06533162  0.06533162  0.00000000       0.008
  -0.09799743 -0.09799743 -0.03919897       0.033
  -0.09799743 -0.13066324 -0.04573213       0.033
  -0.09799743  0.13066324  0.00653316       0.033
  -0.09799743  0.09799743  0.00000000       0.016
  -0.13066324 -0.13066324 -0.05226529       0.008
  -0.13066324  0.13066324  0.00000000       0.008
   0.00000000  0.00000000 -0.03919897       0.008
   0.00000000 -0.03266581 -0.04573213       0.016
   0.00000000 -0.06533162 -0.05226529       0.016
   0.00000000 -0.09799743 -0.05879846       0.016
   0.00000000 -0.13066324 -0.06533162       0.016
   0.00000000  0.13066324 -0.01306632       0.016
   0.00000000  0.06533162 -0.02613265       0.016
   0.00000000  0.03266581 -0.03266581       0.016
  -0.03266581 -0.03266581 -0.05226529       0.008
  -0.03266581 -0.06533162 -0.05879846       0.016
  -0.03266581 -0.09799743 -0.06533162       0.033
  -0.03266581 -0.13066324 -0.07186478       0.016
  -0.03266581  0.06533162 -0.03266581       0.016
  -0.03266581  0.03266581 -0.03919897       0.016
  -0.06533162 -0.06533162 -0.06533162       0.008
  -0.06533162 -0.09799743 -0.07186478       0.033
  -0.06533162  0.13066324 -0.02613265       0.016
  -0.06533162  0.06533162 -0.03919897       0.016
  -0.06533162  0.03266581 -0.04573213       0.016
  -0.09799743 -0.13066324 -0.08493110       0.033
  -0.13066324 -0.13066324 -0.09146427       0.008
  -0.13066324  0.13066324 -0.03919897       0.016
  -0.13066324  0.06533162 -0.05226529       0.016
  -0.13066324  0.03266581 -0.05879846       0.016
   0.13066324  0.13066324  0.01306632       0.008
   0.13066324  0.06533162  0.00000000       0.016
   0.13066324  0.03266581 -0.00653316       0.016
   0.06533162  0.06533162 -0.01306632       0.008
   0.03266581  0.03266581 -0.02613265       0.008
 
 k-points in reciprocal lattice and weights: pymatgen with grid density = 1513 / numb
   0.00000000  0.00000000  0.00000000       0.004
   0.11111111  0.00000000  0.00000000       0.016
   0.22222222  0.00000000  0.00000000       0.016
   0.33333333  0.00000000  0.00000000       0.033
   0.44444444  0.00000000  0.00000000       0.016
   0.11111111  0.11111111  0.00000000       0.008
   0.22222222  0.11111111 -0.00000000       0.033
   0.33333333  0.11111111  0.00000000       0.033
   0.44444444  0.11111111 -0.00000000       0.016
  -0.44444444  0.11111111  0.00000000       0.033
  -0.33333333  0.11111111  0.00000000       0.033
  -0.22222222  0.11111111  0.00000000       0.016
  -0.11111111  0.11111111  0.00000000       0.008
   0.22222222  0.22222222  0.00000000       0.008
   0.33333333  0.22222222  0.00000000       0.033
   0.44444444  0.22222222 -0.00000000       0.033
  -0.44444444  0.22222222  0.00000000       0.016
  -0.33333333  0.22222222 -0.00000000       0.033
  -0.22222222  0.22222222  0.00000000       0.008
   0.33333333  0.33333333  0.00000000       0.033
   0.44444444  0.33333333  0.00000000       0.033
  -0.44444444  0.33333333  0.00000000       0.033
  -0.33333333  0.33333333  0.00000000       0.016
   0.44444444  0.44444444  0.00000000       0.008
  -0.44444444  0.44444444  0.00000000       0.008
   0.00000000  0.00000000  0.33333333       0.008
   0.11111111  0.00000000  0.33333333       0.016
   0.22222222  0.00000000  0.33333333       0.016
   0.33333333  0.00000000  0.33333333       0.016
   0.44444444  0.00000000  0.33333333       0.016
  -0.44444444  0.00000000  0.33333333       0.016
  -0.22222222  0.00000000  0.33333333       0.016
  -0.11111111  0.00000000  0.33333333       0.016
   0.11111111  0.11111111  0.33333333       0.008
   0.22222222  0.11111111  0.33333333       0.016
   0.33333333  0.11111111  0.33333333       0.033
   0.44444444  0.11111111  0.33333333       0.016
  -0.22222222  0.11111111  0.33333333       0.016
  -0.11111111  0.11111111  0.33333333       0.016
   0.22222222  0.22222222  0.33333333       0.008
   0.33333333  0.22222222  0.33333333       0.033
  -0.44444444  0.22222222  0.33333333       0.016
  -0.22222222  0.22222222  0.33333333       0.016
  -0.11111111  0.22222222  0.33333333       0.016
   0.44444444  0.33333333  0.33333333       0.033
   0.44444444  0.44444444  0.33333333       0.008
  -0.44444444  0.44444444  0.33333333       0.016
  -0.22222222  0.44444444  0.33333333       0.016
  -0.11111111  0.44444444  0.33333333       0.016
  -0.44444444 -0.44444444  0.33333333       0.008
  -0.22222222 -0.44444444  0.33333333       0.016
  -0.11111111 -0.44444444  0.33333333       0.016
  -0.22222222 -0.22222222  0.33333333       0.008
  -0.11111111 -0.11111111  0.33333333       0.008
 
 position of ions in fractional coordinates (direct lattice) 
   0.78691922  0.78691922  0.57383845
   0.41308078  0.41308078  0.82616155
   0.01708848  0.01708848  0.03417697
   0.60000000  0.60000000  0.20000000
   0.18291152  0.18291152  0.36582303
 
 position of ions in cartesian coordinates  (Angst):
  -1.70072490 -1.70072490 -4.87970676
  -0.00000002 -0.00000002 -7.02536768
   0.00000002  0.00000002 -0.29062812
  -1.70072492 -1.70072492 -1.70072492
  -0.00000002 -0.00000002 -3.11082172
 


--------------------------------------------------------------------------------------------------------


 k-point  1 :   0.0000 0.0000 0.0000  plane waves:    2643
 k-point  2 :   0.1111 0.0000 0.0000  plane waves:    2648
 k-point  3 :   0.2222 0.0000 0.0000  plane waves:    2659
 k-point  4 :   0.3333 0.0000 0.0000  plane waves:    2660
 k-point  5 :   0.4444 0.0000 0.0000  plane waves:    2663
 k-point  6 :   0.1111 0.1111 0.0000  plane waves:    2655
 k-point  7 :   0.2222 0.1111-0.0000  plane waves:    2652
 k-point  8 :   0.3333 0.1111 0.0000  plane waves:    2644
 k-point  9 :   0.4444 0.1111-0.0000  plane waves:    2655
 k-point 10 :  -0.4444 0.1111 0.0000  plane waves:    2659
 k-point 11 :  -0.3333 0.1111 0.0000  plane waves:    2654
 k-point 12 :  -0.2222 0.1111 0.0000  plane waves:    2653
 k-point 13 :  -0.1111 0.1111 0.0000  plane waves:    2665
 k-point 14 :   0.2222 0.2222 0.0000  plane waves:    2647
 k-point 15 :   0.3333 0.2222 0.0000  plane waves:    2641
 k-point 16 :   0.4444 0.2222-0.0000  plane waves:    2643
 k-point 17 :  -0.4444 0.2222 0.0000  plane waves:    2645
 k-point 18 :  -0.3333 0.2222-0.0000  plane waves:    2648
 k-point 19 :  -0.2222 0.2222 0.0000  plane waves:    2651
 k-point 20 :   0.3333 0.3333 0.0000  plane waves:    2631
 k-point 21 :   0.4444 0.3333 0.0000  plane waves:    2635
 k-point 22 :  -0.4444 0.3333 0.0000  plane waves:    2638
 k-point 23 :  -0.3333 0.3333 0.0000  plane waves:    2623
 k-point 24 :   0.4444 0.4444 0.0000  plane waves:    2638
 k-point 25 :  -0.4444 0.4444 0.0000  plane waves:    2631
 k-point 26 :   0.0000 0.0000 0.3333  plane waves:    2628
 k-point 27 :   0.1111 0.0000 0.3333  plane waves:    2649
 k-point 28 :   0.2222 0.0000 0.3333  plane waves:    2658
 k-point 29 :   0.3333 0.0000 0.3333  plane waves:    2656
 k-point 30 :   0.4444 0.0000 0.3333  plane waves:    2656
 k-point 31 :  -0.4444 0.0000 0.3333  plane waves:    2665
 k-point 32 :  -0.2222 0.0000 0.3333  plane waves:    2659
 k-point 33 :  -0.1111 0.0000 0.3333  plane waves:    2643
 k-point 34 :   0.1111 0.1111 0.3333  plane waves:    2649
 k-point 35 :   0.2222 0.1111 0.3333  plane waves:    2655
 k-point 36 :   0.3333 0.1111 0.3333  plane waves:    2649
 k-point 37 :   0.4444 0.1111 0.3333  plane waves:    2653
 k-point 38 :  -0.2222 0.1111 0.3333  plane waves:    2653
 k-point 39 :  -0.1111 0.1111 0.3333  plane waves:    2648
 k-point 40 :   0.2222 0.2222 0.3333  plane waves:    2648
 k-point 41 :   0.3333 0.2222 0.3333  plane waves:    2643
 k-point 42 :  -0.4444 0.2222 0.3333  plane waves:    2649
 k-point 43 :  -0.2222 0.2222 0.3333  plane waves:    2654
 k-point 44 :  -0.1111 0.2222 0.3333  plane waves:    2659
 k-point 45 :   0.4444 0.3333 0.3333  plane waves:    2646
 k-point 46 :   0.4444 0.4444 0.3333  plane waves:    2631
 k-point 47 :  -0.4444 0.4444 0.3333  plane waves:    2641
 k-point 48 :  -0.2222 0.4444 0.3333  plane waves:    2643
 k-point 49 :  -0.1111 0.4444 0.3333  plane waves:    2667
 k-point 50 :  -0.4444-0.4444 0.3333  plane waves:    2638
 k-point 51 :  -0.2222-0.4444 0.3333  plane waves:    2653
 k-point 52 :  -0.1111-0.4444 0.3333  plane waves:    2659
 k-point 53 :  -0.2222-0.2222 0.3333  plane waves:    2644
 k-point 54 :  -0.1111-0.1111 0.3333  plane waves:    2659

 maximum and minimum number of plane-waves per node :      2667     2623

 maximum number of plane-waves:      2667
 maximum index in each direction: 
   IXMAX=    6   IYMAX=    6   IZMAX=   16
   IXMIN=   -6   IYMIN=   -6   IZMIN=  -16


 serial   3D FFT for wavefunctions
 parallel 3D FFT for charge:
    minimum data exchange during FFTs selected (reduces bandwidth)


 total amount of memory used by VASP MPI-rank0    92522. kBytes
=======================================================================

   base      :      30000. kBytes
   nonl-proj :      41768. kBytes
   fftplans  :       8274. kBytes
   grid      :       5312. kBytes
   one-center:         77. kBytes
   wavefun   :       7091. kBytes
 
     INWAV:  cpu time    0.0000: real time    0.0000
 Broyden mixing: mesh for mixing (old mesh)
   NGX = 13   NGY = 13   NGZ = 33
  (NGX  = 56   NGY  = 56   NGZ  =140)
  gives a total of   5577 points

 initial charge density was supplied:
 charge density of overlapping atoms calculated
 number of electron      33.0000000 magnetization 
 keeping initial charge density in first step


--------------------------------------------------------------------------------------------------------


 Maximum index for augmentation-charges        22645 (set IRDMAX)


--------------------------------------------------------------------------------------------------------


 First call to EWALD:  gamma=   0.384
 Maximum number of real-space cells 4x 4x 2
 Maximum number of reciprocal cells 2x 2x 5

    FEWALD:  cpu time    0.0010: real time    0.0010


--------------------------------------- Iteration      1(   1)  ---------------------------------------


    POTLOK:  cpu time    0.0194: real time    0.0196
    SETDIJ:  cpu time    0.1168: real time    0.1170
     EDDAV:  cpu time    0.6151: real time    0.6180
       DOS:  cpu time    0.0005: real time    0.0006
    --------------------------------------------
      LOOP:  cpu time    0.7519: real time    0.7552

 eigenvalue-minimisations  :  2592
 total energy-change (2. order) : 0.2280455E+03  (-0.1514607E+04)
 number of electron      33.0000000 magnetization 
 augmentation part       33.0000000 magnetization 

 Free energy of the ion-electron system (eV)
  ---------------------------------------------------
  alpha Z        PSCENC =        73.14894918
  Ewald energy   TEWEN  =     -1859.02639918
  -Hartree energ DENC   =      -860.02777617
  -exchange      EXHF   =         0.00000000
  -V(xc)+E(xc)   XCENC  =        20.72266578
  PAW double counting   =      2206.71550851    -2072.91612948
  entropy T*S    EENTRO =        -0.00048887
  eigenvalues    EBANDS =        -9.62151367
  atomic energy  EATOM  =      2729.05063888
  Solvation  Ediel_sol  =         0.00000000
  ---------------------------------------------------
  free energy    TOTEN  =       228.04545498 eV

  energy without entropy =      228.04594385  energy(sigma->0) =      228.04561794


--------------------------------------------------------------------------------------------------------




--------------------------------------- Iteration      1(   2)  ---------------------------------------


     EDDAV:  cpu time    0.6785: real time    0.6815
       DOS:  cpu time    0.0005: real time    0.0005
    --------------------------------------------
      LOOP:  cpu time    0.6790: real time    0.6820

 eigenvalue-minimisations  :  3040
 total energy-change (2. order) :-0.2394070E+03  (-0.2315560E+03)
 number of electron      33.0000000 magnetization 
 augmentation part       33.0000000 magnetization 

 Free energy of the ion-electron system (eV)
  ---------------------------------------------------
  alpha Z        PSCENC =        73.14894918
  Ewald energy   TEWEN  =     -1859.02639918
  -Hartree energ DENC   =      -860.02777617
  -exchange      EXHF   =         0.00000000
  -V(xc)+E(xc)   XCENC  =        20.72266578
  PAW double counting   =      2206.71550851    -2072.91612948
  entropy T*S    EENTRO =         0.00002633
  eigenvalues    EBANDS =      -249.02906932
  atomic energy  EATOM  =      2729.05063888
  Solvation  Ediel_sol  =         0.00000000
  ---------------------------------------------------
  free energy    TOTEN  =       -11.36158547 eV

  energy without entropy =      -11.36161180  energy(sigma->0) =      -11.36159425


--------------------------------------------------------------------------------------------------------




--------------------------------------- Iteration      1(   3)  ---------------------------------------


     EDDAV:  cpu time    0.9766: real time    0.9807
       DOS:  cpu time    0.0005: real time    0.0005
    --------------------------------------------
      LOOP:  cpu time    0.9771: real time    0.9812

 eigenvalue-minimisations  :  4800
 total energy-change (2. order) :-0.1812539E+02  (-0.1773808E+02)
 number of electron      33.0000000 magnetization 
 augmentation part       33.0000000 magnetization 

 Free energy of the ion-electron system (eV)
  ---------------------------------------------------
  alpha Z        PSCENC =        73.14894918
  Ewald energy   TEWEN  =     -1859.02639918
  -Hartree energ DENC   =      -860.02777617
  -exchange      EXHF   =         0.00000000
  -V(xc)+E(xc)   XCENC  =        20.72266578
  PAW double counting   =      2206.71550851    -2072.91612948
  entropy T*S    EENTRO =        -0.00165534
  eigenvalues    EBANDS =      -267.15278250
  atomic energy  EATOM  =      2729.05063888
  Solvation  Ediel_sol  =         0.00000000
  ---------------------------------------------------
  free energy    TOTEN  =       -29.48698032 eV

  energy without entropy =      -29.48532498  energy(sigma->0) =      -29.48642854


--------------------------------------------------------------------------------------------------------




--------------------------------------- Iteration      1(   4)  ---------------------------------------


     EDDAV:  cpu time    0.7176: real time    0.7206
       DOS:  cpu time    0.0005: real time    0.0005
    --------------------------------------------
      LOOP:  cpu time    0.7181: real time    0.7211

 eigenvalue-minimisations  :  3296
 total energy-change (2. order) :-0.9370499E+00  (-0.9355174E+00)
 number of electron      33.0000000 magnetization 
 augmentation part       33.0000000 magnetization 

 Free energy of the ion-electron system (eV)
  ---------------------------------------------------
  alpha Z        PSCENC =        73.14894918
  Ewald energy   TEWEN  =     -1859.02639918
  -Hartree energ DENC   =      -860.02777617
  -exchange      EXHF   =         0.00000000
  -V(xc)+E(xc)   XCENC  =        20.72266578
  PAW double counting   =      2206.71550851    -2072.91612948
  entropy T*S    EENTRO =        -0.00171014
  eigenvalues    EBANDS =      -268.08977756
  atomic energy  EATOM  =      2729.05063888
  Solvation  Ediel_sol  =         0.00000000
  ---------------------------------------------------
  free energy    TOTEN  =       -30.42403019 eV

  energy without entropy =      -30.42232004  energy(sigma->0) =      -30.42346014


--------------------------------------------------------------------------------------------------------




--------------------------------------- Iteration      1(   5)  ---------------------------------------


     EDDAV:  cpu time    0.8599: real time    0.8636
       DOS:  cpu time    0.0005: real time    0.0005
    CHARGE:  cpu time    0.1101: real time    0.1104
    MIXING:  cpu time    0.0009: real time    0.0009
    --------------------------------------------
      LOOP:  cpu time    0.9714: real time    0.9753

 eigenvalue-minimisations  :  4168
 total energy-change (2. order) :-0.5092891E-01  (-0.5092656E-01)
 number of electron      33.0000000 magnetization 
 augmentation part        0.2834051 magnetization 

 Broyden mixing:
  rms(total) = 0.13841E+01    rms(broyden)= 0.13841E+01
  rms(prec ) = 0.16323E+01
  weight for this iteration     100.00

 Free energy of the ion-electron system (eV)
  ---------------------------------------------------
  alpha Z        PSCENC =        73.14894918
  Ewald energy   TEWEN  =     -1859.02639918
  -Hartree energ DENC   =      -860.02777617
  -exchange      EXHF   =         0.00000000
  -V(xc)+E(xc)   XCENC  =        20.72266578
  PAW double counting   =      2206.71550851    -2072.91612948
  entropy T*S    EENTRO =        -0.00173776
  eigenvalues    EBANDS =      -268.14067885
  atomic energy  EATOM  =      2729.05063888
  Solvation  Ediel_sol  =         0.00000000
  ---------------------------------------------------
  free energy    TOTEN  =       -30.47495910 eV

  energy without entropy =      -30.47322134  energy(sigma->0) =      -30.47437984


--------------------------------------------------------------------------------------------------------




--------------------------------------- Iteration      1(   6)  ---------------------------------------


    POTLOK:  cpu time    0.0174: real time    0.0175
    SETDIJ:  cpu time    0.1161: real time    0.1163
     EDDAV:  cpu time    0.7188: real time    0.7219
       DOS:  cpu time    0.0005: real time    0.0005
    CHARGE:  cpu time    0.1064: real time    0.1067
    MIXING:  cpu time    0.0010: real time    0.0010
    --------------------------------------------
      LOOP:  cpu time    0.9601: real time    0.9639

 eigenvalue-minimisations  :  3208
 total energy-change (2. order) : 0.1069039E+01  (-0.4622439E+00)
 number of electron      33.0000000 magnetization 
 augmentation part        0.4870643 magnetization 

 Broyden mixing:
  rms(total) = 0.58471E+00    rms(broyden)= 0.58471E+00
  rms(prec ) = 0.78684E+00
  weight for this iteration     100.00

 eigenvalues of (default mixing * dielectric matrix)
  average eigenvalue GAMMA=   1.5881
  1.5881

 Free energy of the ion-electron system (eV)
  ---------------------------------------------------
  alpha Z        PSCENC =        73.14894918
  Ewald energy   TEWEN  =     -1859.02639918
  -Hartree energ DENC   =      -825.57448812
  -exchange      EXHF   =         0.00000000
  -V(xc)+E(xc)   XCENC  =        19.51533228
  PAW double counting   =      2643.38208388    -2511.59574591
  entropy T*S    EENTRO =         0.00094576
  eigenvalues    EBANDS =      -298.30723696
  atomic energy  EATOM  =      2729.05063888
  Solvation  Ediel_sol  =         0.00000000
  ---------------------------------------------------
  free energy    TOTEN  =       -29.40592020 eV

  energy without entropy =      -29.40686596  energy(sigma->0) =      -29.40623545


--------------------------------------------------------------------------------------------------------




--------------------------------------- Iteration      1(   7)  ---------------------------------------


    POTLOK:  cpu time    0.0172: real time    0.0174
    SETDIJ:  cpu time    0.1156: real time    0.1158
     EDDAV:  cpu time    0.7525: real time    0.7557
       DOS:  cpu time    0.0005: real time    0.0005
    CHARGE:  cpu time    0.1129: real time    0.1132
    MIXING:  cpu time    0.0008: real time    0.0008
    --------------------------------------------
      LOOP:  cpu time    0.9995: real time    1.0033

 eigenvalue-minimisations  :  3496
 total energy-change (2. order) : 0.2134517E+00  (-0.1517721E+00)
 number of electron      33.0000000 magnetization 
 augmentation part        0.3419471 magnetization 

 Broyden mixing:
  rms(total) = 0.24838E+00    rms(broyden)= 0.24838E+00
  rms(prec ) = 0.32636E+00
  weight for this iteration     100.00

 eigenvalues of (default mixing * dielectric matrix)
  average eigenvalue GAMMA=   1.2037
  0.8009  1.6066

 Free energy of the ion-electron system (eV)
  ---------------------------------------------------
  alpha Z        PSCENC =        73.14894918
  Ewald energy   TEWEN  =     -1859.02639918
  -Hartree energ DENC   =      -827.75322052
  -exchange      EXHF   =         0.00000000
  -V(xc)+E(xc)   XCENC  =        19.34914395
  PAW double counting   =      2918.88035946    -2786.54772370
  entropy T*S    EENTRO =        -0.00136196
  eigenvalues    EBANDS =      -296.29285465
  atomic energy  EATOM  =      2729.05063888
  Solvation  Ediel_sol  =         0.00000000
  ---------------------------------------------------
  free energy    TOTEN  =       -29.19246853 eV

  energy without entropy =      -29.19110657  energy(sigma->0) =      -29.19201455


--------------------------------------------------------------------------------------------------------




--------------------------------------- Iteration      1(   8)  ---------------------------------------


    POTLOK:  cpu time    0.0172: real time    0.0173
    SETDIJ:  cpu time    0.1167: real time    0.1169
     EDDAV:  cpu time    0.7459: real time    0.7492
       DOS:  cpu time    0.0005: real time    0.0005
    CHARGE:  cpu time    0.1007: real time    0.1010
    MIXING:  cpu time    0.0007: real time    0.0007
    --------------------------------------------
      LOOP:  cpu time    0.9817: real time    0.9856

 eigenvalue-minimisations  :  3424
 total energy-change (2. order) : 0.4851534E-01  (-0.1855485E-01)
 number of electron      33.0000000 magnetization 
 augmentation part        0.3828596 magnetization 

 Broyden mixing:
  rms(total) = 0.78111E-01    rms(broyden)= 0.78111E-01
  rms(prec ) = 0.98819E-01
  weight for this iteration     100.00

 eigenvalues of (default mixing * dielectric matrix)
  average eigenvalue GAMMA=   1.4344
  1.9462  1.6881  0.6690

 Free energy of the ion-electron system (eV)
  ---------------------------------------------------
  alpha Z        PSCENC =        73.14894918
  Ewald energy   TEWEN  =     -1859.02639918
  -Hartree energ DENC   =      -822.05258400
  -exchange      EXHF   =         0.00000000
  -V(xc)+E(xc)   XCENC  =        19.18792788
  PAW double counting   =      3120.22248918    -2987.24376602
  entropy T*S    EENTRO =        -0.00191820
  eigenvalues    EBANDS =      -302.42929091
  atomic energy  EATOM  =      2729.05063888
  Solvation  Ediel_sol  =         0.00000000
  ---------------------------------------------------
  free energy    TOTEN  =       -29.14395319 eV

  energy without entropy =      -29.14203499  energy(sigma->0) =      -29.14331379


--------------------------------------------------------------------------------------------------------




--------------------------------------- Iteration      1(   9)  ---------------------------------------


    POTLOK:  cpu time    0.0171: real time    0.0172
    SETDIJ:  cpu time    0.1159: real time    0.1161
     EDDAV:  cpu time    0.7161: real time    0.7191
       DOS:  cpu time    0.0005: real time    0.0005
    CHARGE:  cpu time    0.1011: real time    0.1014
    MIXING:  cpu time    0.0007: real time    0.0007
    --------------------------------------------
      LOOP:  cpu time    0.9514: real time    0.9550

 eigenvalue-minimisations  :  3272
 total energy-change (2. order) : 0.4777816E-03  (-0.2479105E-02)
 number of electron      33.0000000 magnetization 
 augmentation part        0.3559918 magnetization 

 Broyden mixing:
  rms(total) = 0.22459E-01    rms(broyden)= 0.22459E-01
  rms(prec ) = 0.28524E-01
  weight for this iteration     100.00

 eigenvalues of (default mixing * dielectric matrix)
  average eigenvalue GAMMA=   1.5478
  2.6718  0.6715  1.6970  1.1508

 Free energy of the ion-electron system (eV)
  ---------------------------------------------------
  alpha Z        PSCENC =        73.14894918
  Ewald energy   TEWEN  =     -1859.02639918
  -Hartree energ DENC   =      -823.28596339
  -exchange      EXHF   =         0.00000000
  -V(xc)+E(xc)   XCENC  =        19.29874914
  PAW double counting   =      3171.33348902    -3037.21528522
  entropy T*S    EENTRO =        -0.00189154
  eigenvalues    EBANDS =      -302.44576230
  atomic energy  EATOM  =      2729.05063888
  Solvation  Ediel_sol  =         0.00000000
  ---------------------------------------------------
  free energy    TOTEN  =       -29.14347541 eV

  energy without entropy =      -29.14158387  energy(sigma->0) =      -29.14284489


--------------------------------------------------------------------------------------------------------




--------------------------------------- Iteration      1(  10)  ---------------------------------------


    POTLOK:  cpu time    0.0171: real time    0.0172
    SETDIJ:  cpu time    0.1156: real time    0.1158
     EDDAV:  cpu time    0.7795: real time    0.7827
       DOS:  cpu time    0.0005: real time    0.0005
    CHARGE:  cpu time    0.1030: real time    0.1033
    MIXING:  cpu time    0.0009: real time    0.0009
    --------------------------------------------
      LOOP:  cpu time    1.0167: real time    1.0205

 eigenvalue-minimisations  :  3616
 total energy-change (2. order) :-0.9611013E-04  (-0.2133356E-03)
 number of electron      33.0000000 magnetization 
 augmentation part        0.3494180 magnetization 

 Broyden mixing:
  rms(total) = 0.85601E-02    rms(broyden)= 0.85596E-02
  rms(prec ) = 0.90369E-02
  weight for this iteration     100.00

 eigenvalues of (default mixing * dielectric matrix)
  average eigenvalue GAMMA=   1.5591
  2.6344  0.6775  0.9581  1.9125  1.6132

 Free energy of the ion-electron system (eV)
  ---------------------------------------------------
  alpha Z        PSCENC =        73.14894918
  Ewald energy   TEWEN  =     -1859.02639918
  -Hartree energ DENC   =      -823.84878944
  -exchange      EXHF   =         0.00000000
  -V(xc)+E(xc)   XCENC  =        19.33534649
  PAW double counting   =      3176.51382142    -3041.99980991
  entropy T*S    EENTRO =        -0.00187713
  eigenvalues    EBANDS =      -302.31545182
  atomic energy  EATOM  =      2729.05063888
  Solvation  Ediel_sol  =         0.00000000
  ---------------------------------------------------
  free energy    TOTEN  =       -29.14357152 eV

  energy without entropy =      -29.14169438  energy(sigma->0) =      -29.14294581


--------------------------------------------------------------------------------------------------------




--------------------------------------- Iteration      1(  11)  ---------------------------------------


    POTLOK:  cpu time    0.0176: real time    0.0178
    SETDIJ:  cpu time    0.1166: real time    0.1169
     EDDAV:  cpu time    0.7217: real time    0.7252
       DOS:  cpu time    0.0005: real time    0.0005
    CHARGE:  cpu time    0.1022: real time    0.1025
    MIXING:  cpu time    0.0008: real time    0.0008
    --------------------------------------------
      LOOP:  cpu time    0.9594: real time    0.9636

 eigenvalue-minimisations  :  3296
 total energy-change (2. order) : 0.2032462E-04  (-0.1031956E-04)
 number of electron      33.0000000 magnetization 
 augmentation part        0.3502670 magnetization 

 Broyden mixing:
  rms(total) = 0.27936E-02    rms(broyden)= 0.27935E-02
  rms(prec ) = 0.29021E-02
  weight for this iteration     100.00

 eigenvalues of (default mixing * dielectric matrix)
  average eigenvalue GAMMA=   1.5898
  2.6268  2.4754  0.6768  0.9846  1.1943  1.5810

 Free energy of the ion-electron system (eV)
  ---------------------------------------------------
  alpha Z        PSCENC =        73.14894918
  Ewald energy   TEWEN  =     -1859.02639918
  -Hartree energ DENC   =      -823.85584032
  -exchange      EXHF   =         0.00000000
  -V(xc)+E(xc)   XCENC  =        19.33899145
  PAW double counting   =      3172.75524985    -3038.13282486
  entropy T*S    EENTRO =        -0.00187439
  eigenvalues    EBANDS =      -302.42044179
  atomic energy  EATOM  =      2729.05063888
  Solvation  Ediel_sol  =         0.00000000
  ---------------------------------------------------
  free energy    TOTEN  =       -29.14355119 eV

  energy without entropy =      -29.14167680  energy(sigma->0) =      -29.14292640


--------------------------------------------------------------------------------------------------------




--------------------------------------- Iteration      1(  12)  ---------------------------------------


    POTLOK:  cpu time    0.0171: real time    0.0172
    SETDIJ:  cpu time    0.1166: real time    0.1168
     EDDAV:  cpu time    0.7341: real time    0.7371
       DOS:  cpu time    0.0005: real time    0.0005
    CHARGE:  cpu time    0.1013: real time    0.1016
    MIXING:  cpu time    0.0009: real time    0.0009
    --------------------------------------------
      LOOP:  cpu time    0.9705: real time    0.9741

 eigenvalue-minimisations  :  3352
 total energy-change (2. order) : 0.3878685E-05  (-0.1137850E-05)
 number of electron      33.0000000 magnetization 
 augmentation part        0.3501633 magnetization 

 Broyden mixing:
  rms(total) = 0.57514E-03    rms(broyden)= 0.57509E-03
  rms(prec ) = 0.65613E-03
  weight for this iteration     100.00

 eigenvalues of (default mixing * dielectric matrix)
  average eigenvalue GAMMA=   1.6018
  2.7778  2.6058  0.6769  1.5930  1.5930  0.9832  0.9832

 Free energy of the ion-electron system (eV)
  ---------------------------------------------------
  alpha Z        PSCENC =        73.14894918
  Ewald energy   TEWEN  =     -1859.02639918
  -Hartree energ DENC   =      -823.88157683
  -exchange      EXHF   =         0.00000000
  -V(xc)+E(xc)   XCENC  =        19.34030369
  PAW double counting   =      3169.57479239    -3034.92681844
  entropy T*S    EENTRO =        -0.00187298
  eigenvalues    EBANDS =      -302.42156401
  atomic energy  EATOM  =      2729.05063888
  Solvation  Ediel_sol  =         0.00000000
  ---------------------------------------------------
  free energy    TOTEN  =       -29.14354731 eV

  energy without entropy =      -29.14167433  energy(sigma->0) =      -29.14292299


--------------------------------------------------------------------------------------------------------




--------------------------------------- Iteration      1(  13)  ---------------------------------------


    POTLOK:  cpu time    0.0172: real time    0.0173
    SETDIJ:  cpu time    0.1164: real time    0.1166
     EDDAV:  cpu time    0.7204: real time    0.7233
       DOS:  cpu time    0.0005: real time    0.0005
    CHARGE:  cpu time    0.1012: real time    0.1015
    MIXING:  cpu time    0.0009: real time    0.0009
    --------------------------------------------
      LOOP:  cpu time    0.9565: real time    0.9600

 eigenvalue-minimisations  :  3296
 total energy-change (2. order) : 0.1802559E-06  (-0.1400909E-06)
 number of electron      33.0000000 magnetization 
 augmentation part        0.3501207 magnetization 

 Broyden mixing:
  rms(total) = 0.14584E-03    rms(broyden)= 0.14583E-03
  rms(prec ) = 0.18084E-03
  weight for this iteration     100.00

 eigenvalues of (default mixing * dielectric matrix)
  average eigenvalue GAMMA=   1.5705
  2.8701  2.4496  1.8957  0.6769  1.4247  1.3339  0.9567  0.9567

 Free energy of the ion-electron system (eV)
  ---------------------------------------------------
  alpha Z        PSCENC =        73.14894918
  Ewald energy   TEWEN  =     -1859.02639918
  -Hartree energ DENC   =      -823.88595404
  -exchange      EXHF   =         0.00000000
  -V(xc)+E(xc)   XCENC  =        19.34071568
  PAW double counting   =      3168.98573553    -3034.33269055
  entropy T*S    EENTRO =        -0.00187367
  eigenvalues    EBANDS =      -302.42266897
  atomic energy  EATOM  =      2729.05063888
  Solvation  Ediel_sol  =         0.00000000
  ---------------------------------------------------
  free energy    TOTEN  =       -29.14354713 eV

  energy without entropy =      -29.14167347  energy(sigma->0) =      -29.14292258


--------------------------------------------------------------------------------------------------------




--------------------------------------- Iteration      1(  14)  ---------------------------------------


    POTLOK:  cpu time    0.0171: real time    0.0172
    SETDIJ:  cpu time    0.1158: real time    0.1160
     EDDAV:  cpu time    0.5811: real time    0.5834
       DOS:  cpu time    0.0005: real time    0.0005
    --------------------------------------------
      LOOP:  cpu time    0.7144: real time    0.7171

 eigenvalue-minimisations  :  2360
 total energy-change (2. order) :-0.3818286E-07  (-0.1451417E-07)
 number of electron      33.0000000 magnetization 
 augmentation part        0.3501207 magnetization 

 Free energy of the ion-electron system (eV)
  ---------------------------------------------------
  alpha Z        PSCENC =        73.14894918
  Ewald energy   TEWEN  =     -1859.02639918
  -Hartree energ DENC   =      -823.88431282
  -exchange      EXHF   =         0.00000000
  -V(xc)+E(xc)   XCENC  =        19.34062353
  PAW double counting   =      3169.05982429    -3034.40775741
  entropy T*S    EENTRO =        -0.00187378
  eigenvalues    EBANDS =      -302.42323987
  atomic energy  EATOM  =      2729.05063888
  Solvation  Ediel_sol  =         0.00000000
  ---------------------------------------------------
  free energy    TOTEN  =       -29.14354717 eV

  energy without entropy =      -29.14167340  energy(sigma->0) =      -29.14292258


--------------------------------------------------------------------------------------------------------




 average (electrostatic) potential at core
  the test charge radii are     1.0638  1.0406
  (the norm of the test charge is              1.0000)
       1 -75.6668       2 -75.6668       3 -72.1263       4 -72.3994       5 -72.1263
 
 
 
 E-fermi :   8.0231     XC(G=0): -10.5293     alpha+bet :-15.0280


 k-point     1 :       0.0000    0.0000    0.0000
  band No.  band energies     occupation 
      1     -40.7906      2.00000
      2     -40.7062      2.00000
      3     -18.9910      2.00000
      4     -18.7166      2.00000
      5     -18.7166      2.00000
      6     -18.6382      2.00000
      7     -18.5317      2.00000
      8     -18.5317      2.00000
      9      -1.7490      2.00000
     10       1.3780      2.00000
     11       2.9695      2.00000
     12       5.4397      2.00000
     13       6.4745      2.00000
     14       8.0504      0.55691
     15       8.4359     -0.00000
     16       8.9857     -0.00000
     17       8.9857     -0.00000
     18       9.0724     -0.00000
     19       9.0724     -0.00000
     20       9.8808     -0.00000
     21      10.8368      0.00000
     22      11.9226      0.00000
     23      11.9228      0.00000
     24      11.9412      0.00000

 k-point     2 :       0.1111    0.0000    0.0000
  band No.  band energies     occupation 
      1     -40.7854      2.00000
      2     -40.7061      2.00000
      3     -18.9854      2.00000
      4     -18.7782      2.00000
      5     -18.7080      2.00000
      6     -18.6130      2.00000
      7     -18.5646      2.00000
      8     -18.5340      2.00000
      9      -1.5890      2.00000
     10       1.4989      2.00000
     11       3.2079      2.00000
     12       5.5850      2.00000
     13       6.5691      2.00000
     14       7.2756      2.00000
     15       8.2832     -0.00146
     16       8.5281     -0.00000
     17       8.6982     -0.00000
     18       8.9918     -0.00000
     19       9.1593     -0.00000
     20      10.2338     -0.00000
     21      10.6563     -0.00000
     22      11.3267      0.00000
     23      11.6034      0.00000
     24      11.9921      0.00000

 k-point     3 :       0.2222    0.0000    0.0000
  band No.  band energies     occupation 
      1     -40.7714      2.00000
      2     -40.7066      2.00000
      3     -18.9795      2.00000
      4     -18.8857      2.00000
      5     -18.6841      2.00000
      6     -18.6366      2.00000
      7     -18.5987      2.00000
      8     -18.5421      2.00000
      9      -1.1152      2.00000
     10       1.8722      2.00000
     11       3.8571      2.00000
     12       5.4078      2.00000
     13       5.9973      2.00000
     14       6.6875      2.00000
     15       7.5898      2.00000
     16       8.0301      0.88215
     17       8.8622     -0.00000
     18       9.0130     -0.00000
     19       9.2090     -0.00000
     20      10.2068     -0.00000
     21      10.3975     -0.00000
     22      10.7700      0.00000
     23      11.1298      0.00000
     24      12.0174      0.00000

 k-point     4 :       0.3333    0.0000    0.0000
  band No.  band energies     occupation 
      1     -40.7525      2.00000
      2     -40.7102      2.00000
      3     -19.0001      2.00000
      4     -18.9854      2.00000
      5     -18.6827      2.00000
      6     -18.6505      2.00000
      7     -18.6098      2.00000
      8     -18.5576      2.00000
      9      -0.3429      2.00000
     10       2.5039      2.00000
     11       3.6545      2.00000
     12       4.7298      2.00000
     13       5.8853      2.00000
     14       6.4605      2.00000
     15       7.1021      2.00000
     16       7.8007      2.00726
     17       8.8478     -0.00000
     18       8.9916     -0.00000
     19       9.0982     -0.00000
     20      10.2140     -0.00000
     21      10.3509     -0.00000
     22      10.8520      0.00000
     23      11.0767      0.00000
     24      12.1192      0.00000

 k-point     5 :       0.4444    0.0000    0.0000
  band No.  band energies     occupation 
      1     -40.7337      2.00000
      2     -40.7190      2.00000
      3     -19.0412      2.00000
      4     -19.0383      2.00000
      5     -18.6730      2.00000
      6     -18.6393      2.00000
      7     -18.6143      2.00000
      8     -18.5820      2.00000
      9       0.6958      2.00000
     10       2.0983      2.00000
     11       3.3476      2.00000
     12       4.6253      2.00000
     13       5.7546      2.00000
     14       6.3844      2.00000
     15       6.9388      2.00000
     16       8.0963      0.05903
     17       8.6621     -0.00000
     18       8.7308     -0.00000
     19       8.8321     -0.00000
     20      10.3031     -0.00000
     21      10.5815     -0.00000
     22      10.9110      0.00000
     23      11.0755      0.00000
     24      12.5195      0.00000

 k-point     6 :       0.1111    0.1111    0.0000
  band No.  band energies     occupation 
      1     -40.7804      2.00000
      2     -40.7058      2.00000
      3     -18.9794      2.00000
      4     -18.7800      2.00000
      5     -18.7540      2.00000
      6     -18.5928      2.00000
      7     -18.5772      2.00000
      8     -18.5567      2.00000
      9      -1.4272      2.00000
     10       1.5951      2.00000
     11       3.4885      2.00000
     12       5.7040      2.00000
     13       6.6706      2.00000
     14       7.2913      2.00000
     15       7.6358      2.00000
     16       8.1491     -0.07056
     17       8.3645     -0.00002
     18       9.0222     -0.00000
     19       9.0799     -0.00000
     20      10.1795     -0.00000
     21      10.4621     -0.00000
     22      10.8666      0.00000
     23      11.1894      0.00000
     24      12.0785      0.00000

 k-point     7 :       0.2222    0.1111   -0.0000
  band No.  band energies     occupation 
      1     -40.7668      2.00000
      2     -40.7059      2.00000
      3     -18.9724      2.00000
      4     -18.8746      2.00000
      5     -18.7402      2.00000
      6     -18.6435      2.00000
      7     -18.5808      2.00000
      8     -18.5706      2.00000
      9      -0.9549      2.00000
     10       1.9685      2.00000
     11       4.1344      2.00000
     12       5.5190      2.00000
     13       6.1267      2.00000
     14       6.8483      2.00000
     15       7.4966      2.00000
     16       7.7929      2.00535
     17       7.9521      1.92702
     18       9.0173     -0.00000
     19       9.2046     -0.00000
     20       9.6900     -0.00000
     21       9.9511     -0.00000
     22      10.7593      0.00000
     23      11.1582      0.00000
     24      11.7574      0.00000

 k-point     8 :       0.3333    0.1111    0.0000
  band No.  band energies     occupation 
      1     -40.7487      2.00000
      2     -40.7088      2.00000
      3     -18.9917      2.00000
      4     -18.9739      2.00000
      5     -18.7074      2.00000
      6     -18.6897      2.00000
      7     -18.5910      2.00000
      8     -18.5861      2.00000
      9      -0.1872      2.00000
     10       2.6134      2.00000
     11       3.7959      2.00000
     12       4.9507      2.00000
     13       5.9888      2.00000
     14       6.4951      2.00000
     15       7.2137      2.00000
     16       7.6392      2.00000
     17       8.3106     -0.00037
     18       8.7720     -0.00000
     19       8.9501     -0.00000
     20       9.7322     -0.00000
     21      10.0855     -0.00000
     22      10.9601      0.00000
     23      11.0358      0.00000
     24      11.6862      0.00000

 k-point     9 :       0.4444    0.1111   -0.0000
  band No.  band energies     occupation 
      1     -40.7307      2.00000
      2     -40.7168      2.00000
      3     -19.0305      2.00000
      4     -19.0288      2.00000
      5     -18.6852      2.00000
      6     -18.6805      2.00000
      7     -18.6102      2.00000
      8     -18.6058      2.00000
      9       0.8455      2.00000
     10       2.2465      2.00000
     11       3.4617      2.00000
     12       4.7415      2.00000
     13       5.8945      2.00000
     14       6.4719      2.00000
     15       6.9775      2.00000
     16       7.8499      2.03430
     17       8.3565     -0.00003
     18       8.5652     -0.00000
     19       8.7271     -0.00000
     20      10.0867     -0.00000
     21      10.3636     -0.00000
     22      11.0377      0.00000
     23      11.2102      0.00000
     24      11.6329      0.00000

 k-point    10 :      -0.4444    0.1111    0.0000
  band No.  band energies     occupation 
      1     -40.7307      2.00000
      2     -40.7168      2.00000
      3     -19.0305      2.00000
      4     -19.0288      2.00000
      5     -18.6853      2.00000
      6     -18.6805      2.00000
      7     -18.6101      2.00000
      8     -18.6058      2.00000
      9       0.8423      2.00000
     10       2.2456      2.00000
     11       3.4750      2.00000
     12       4.7847      2.00000
     13       5.8295      2.00000
     14       6.4345      2.00000
     15       7.0239      2.00000
     16       7.7623      2.00141
     17       8.3981     -0.00000
     18       8.5411     -0.00000
     19       8.7424     -0.00000
     20      10.1692     -0.00000
     21      10.4931     -0.00000
     22      11.0313      0.00000
     23      11.1012      0.00000
     24      11.4599      0.00000

 k-point    11 :      -0.3333    0.1111    0.0000
  band No.  band energies     occupation 
      1     -40.7487      2.00000
      2     -40.7088      2.00000
      3     -18.9917      2.00000
      4     -18.9739      2.00000
      5     -18.7074      2.00000
      6     -18.6898      2.00000
      7     -18.5910      2.00000
      8     -18.5861      2.00000
      9      -0.1952      2.00000
     10       2.6747      2.00000
     11       3.7986      2.00000
     12       4.8332      2.00000
     13       5.9056      2.00000
     14       6.7164      2.00000
     15       7.1551      2.00000
     16       7.5603      2.00000
     17       8.2330     -0.01147
     18       8.8451     -0.00000
     19       8.9499     -0.00000
     20       9.9079     -0.00000
     21      10.1670     -0.00000
     22      10.7762      0.00000
     23      10.9744      0.00000
     24      11.6286      0.00000

 k-point    12 :      -0.2222    0.1111    0.0000
  band No.  band energies     occupation 
      1     -40.7668      2.00000
      2     -40.7059      2.00000
      3     -18.9725      2.00000
      4     -18.8746      2.00000
      5     -18.7402      2.00000
      6     -18.6435      2.00000
      7     -18.5808      2.00000
      8     -18.5706      2.00000
      9      -0.9644      2.00000
     10       2.0522      2.00000
     11       3.9767      2.00000
     12       5.5679      2.00000
     13       6.0715      2.00000
     14       6.8568      2.00000
     15       7.6566      2.00000
     16       7.7954      2.00591
     17       7.8598      2.04311
     18       9.0962     -0.00000
     19       9.1829     -0.00000
     20       9.7244     -0.00000
     21       9.9869     -0.00000
     22      10.6445     -0.00000
     23      11.3615      0.00000
     24      11.5716      0.00000

 k-point    13 :      -0.1111    0.1111    0.0000
  band No.  band energies     occupation 
      1     -40.7804      2.00000
      2     -40.7058      2.00000
      3     -18.9795      2.00000
      4     -18.7799      2.00000
      5     -18.7540      2.00000
      6     -18.5928      2.00000
      7     -18.5772      2.00000
      8     -18.5567      2.00000
      9      -1.4335      2.00000
     10       1.6577      2.00000
     11       3.3821      2.00000
     12       5.7360      2.00000
     13       6.6845      2.00000
     14       7.2588      2.00000
     15       7.5882      2.00000
     16       8.2394     -0.00914
     17       8.4352     -0.00000
     18       8.9923     -0.00000
     19       9.0490     -0.00000
     20      10.1785     -0.00000
     21      10.6586     -0.00000
     22      10.6604     -0.00000
     23      11.3473      0.00000
     24      12.2141      0.00000

 k-point    14 :       0.2222    0.2222    0.0000
  band No.  band energies     occupation 
      1     -40.7546      2.00000
      2     -40.7049      2.00000
      3     -18.9619      2.00000
      4     -18.8476      2.00000
      5     -18.8418      2.00000
      6     -18.6754      2.00000
      7     -18.6198      2.00000
      8     -18.5741      2.00000
      9      -0.4894      2.00000
     10       2.3465      2.00000
     11       4.6965      2.00000
     12       5.8787      2.00000
     13       5.9029      2.00000
     14       6.6019      2.00000
     15       7.2584      2.00000
     16       7.3158      2.00000
     17       7.3916      2.00000
     18       8.6074     -0.00000
     19       9.1238     -0.00000
     20       9.2283     -0.00000
     21       9.5411     -0.00000
     22      10.9081      0.00000
     23      11.0432      0.00000
     24      11.8098      0.00000

 k-point    15 :       0.3333    0.2222    0.0000
  band No.  band energies     occupation 
      1     -40.7384      2.00000
      2     -40.7059      2.00000
      3     -18.9761      2.00000
      4     -18.9466      2.00000
      5     -18.8012      2.00000
      6     -18.7135      2.00000
      7     -18.6459      2.00000
      8     -18.5912      2.00000
      9       0.2696      2.00000
     10       2.9746      2.00000
     11       4.1913      2.00000
     12       5.3885      2.00000
     13       6.2141      2.00000
     14       6.4055      2.00000
     15       6.8516      2.00000
     16       7.3028      2.00000
     17       7.6431      2.00000
     18       8.1823     -0.04689
     19       8.8281     -0.00000
     20       9.1639     -0.00000
     21       9.8010     -0.00000
     22      10.9329      0.00000
     23      11.2106      0.00000
     24      11.6633      0.00000

 k-point    16 :       0.4444    0.2222   -0.0000
  band No.  band energies     occupation 
      1     -40.7228      2.00000
      2     -40.7115      2.00000
      3     -19.0088      2.00000
      4     -19.0065      2.00000
      5     -18.7568      2.00000
      6     -18.7257      2.00000
      7     -18.6514      2.00000
      8     -18.6237      2.00000
      9       1.2928      2.00000
     10       2.6733      2.00000
     11       3.7508      2.00000
     12       5.1439      2.00000
     13       6.0104      2.00000
     14       6.4775      2.00000
     15       6.8461      2.00000
     16       7.5469      2.00000
     17       7.8565      2.04005
     18       8.1475     -0.07080
     19       8.5175     -0.00000
     20       9.3740     -0.00000
     21       9.5701     -0.00000
     22      10.6808     -0.00000
     23      11.3369      0.00000
     24      11.7864      0.00000

 k-point    17 :      -0.4444    0.2222    0.0000
  band No.  band energies     occupation 
      1     -40.7228      2.00000
      2     -40.7115      2.00000
      3     -19.0089      2.00000
      4     -19.0064      2.00000
      5     -18.7567      2.00000
      6     -18.7257      2.00000
      7     -18.6515      2.00000
      8     -18.6237      2.00000
      9       1.2765      2.00000
     10       2.6914      2.00000
     11       3.8412      2.00000
     12       5.0814      2.00000
     13       5.7861      2.00000
     14       6.6492      2.00000
     15       6.8833      2.00000
     16       7.5670      2.00000
     17       7.7115      2.00010
     18       8.0532      0.51477
     19       8.5573     -0.00000
     20       9.3831     -0.00000
     21      10.0264     -0.00000
     22      10.6287     -0.00000
     23      11.2336      0.00000
     24      11.4136      0.00000

 k-point    18 :      -0.3333    0.2222   -0.0000
  band No.  band energies     occupation 
      1     -40.7384      2.00000
      2     -40.7059      2.00000
      3     -18.9762      2.00000
      4     -18.9465      2.00000
      5     -18.8011      2.00000
      6     -18.7136      2.00000
      7     -18.6459      2.00000
      8     -18.5911      2.00000
      9       0.2519      2.00000
     10       3.1086      2.00000
     11       4.2300      2.00000
     12       5.1265      2.00000
     13       5.9308      2.00000
     14       6.6753      2.00000
     15       6.9816      2.00000
     16       7.1441      2.00000
     17       7.4877      2.00000
[...]
     16       6.6943      2.00000
     17       7.4278      2.00001
     18       7.6861      2.01671
     19       8.2922     -0.00000
     20       9.5261     -0.00000
     21       9.7396     -0.00000
     22      10.6295      0.00000
     23      11.6760      0.00000
     24      12.0032      0.00000

 k-point    46 :       0.4444    0.4444    0.3333
  band No.  band energies     occupation 
      1     -40.5144      2.00000
      2     -40.5092      2.00000
      3     -18.9564      2.00000
      4     -18.9536      2.00000
      5     -18.6625      2.00000
      6     -18.6407      2.00000
      7     -18.3272      2.00000
      8     -18.3248      2.00000
      9       2.8595      2.00000
     10       3.8481      2.00000
     11       4.3726      2.00000
     12       4.4110      2.00000
     13       5.2536      2.00000
     14       5.9247      2.00000
     15       6.3359      2.00000
     16       6.3851      2.00000
     17       7.6535      2.07083
     18       7.9260     -0.05382
     19       8.1382     -0.00000
     20       9.7346     -0.00000
     21       9.8088     -0.00000
     22      10.4170     -0.00000
     23      11.6292      0.00000
     24      12.0734      0.00000

 k-point    47 :      -0.4444    0.4444    0.3333
  band No.  band energies     occupation 
      1     -40.5144      2.00000
      2     -40.5092      2.00000
      3     -18.9564      2.00000
      4     -18.9536      2.00000
      5     -18.6627      2.00000
      6     -18.6404      2.00000
      7     -18.3272      2.00000
      8     -18.3248      2.00000
      9       2.9288      2.00000
     10       3.7513      2.00000
     11       4.2291      2.00000
     12       4.4331      2.00000
     13       5.3827      2.00000
     14       6.0225      2.00000
     15       6.3216      2.00000
     16       6.4413      2.00000
     17       7.5925      2.02747
     18       7.8461      0.06839
     19       8.1835     -0.00000
     20       9.4461     -0.00000
     21      10.0330     -0.00000
     22      10.4256     -0.00000
     23      11.6068      0.00000
     24      12.0653      0.00000

 k-point    48 :      -0.2222    0.4444    0.3333
  band No.  band energies     occupation 
      1     -40.5293      2.00000
      2     -40.5063      2.00000
      3     -18.9335      2.00000
      4     -18.9311      2.00000
      5     -18.6417      2.00000
      6     -18.5683      2.00000
      7     -18.3236      2.00000
      8     -18.3194      2.00000
      9       1.5839      2.00000
     10       2.6966      2.00000
     11       3.5856      2.00000
     12       5.2795      2.00000
     13       5.9318      2.00000
     14       6.5701      2.00000
     15       7.1677      2.00000
     16       7.2804      2.00000
     17       7.4033      2.00000
     18       7.6155      2.04722
     19       8.4738     -0.00000
     20       9.7557     -0.00000
     21      10.2375     -0.00000
     22      11.0258      0.00000
     23      11.6639      0.00000
     24      12.0061      0.00000

 k-point    49 :      -0.1111    0.4444    0.3333
  band No.  band energies     occupation 
      1     -40.5351      2.00000
      2     -40.5069      2.00000
      3     -18.9453      2.00000
      4     -18.9380      2.00000
      5     -18.5676      2.00000
      6     -18.4940      2.00000
      7     -18.3522      2.00000
      8     -18.3407      2.00000
      9       1.1976      2.00000
     10       2.3487      2.00000
     11       3.3966      2.00000
     12       4.8402      2.00000
     13       5.9522      2.00000
     14       6.4580      2.00000
     15       7.1728      2.00000
     16       7.5635      2.01109
     17       7.7781      0.93615
     18       8.4771     -0.00000
     19       8.9291     -0.00000
     20      10.4287     -0.00000
     21      11.0201      0.00000
     22      11.3931      0.00000
     23      11.4260      0.00000
     24      11.9271      0.00000

 k-point    50 :      -0.4444   -0.4444    0.3333
  band No.  band energies     occupation 
      1     -40.5144      2.00000
      2     -40.5092      2.00000
      3     -18.9564      2.00000
      4     -18.9536      2.00000
      5     -18.6623      2.00000
      6     -18.6409      2.00000
      7     -18.3273      2.00000
      8     -18.3248      2.00000
      9       2.8028      2.00000
     10       4.0223      2.00000
     11       4.3924      2.00000
     12       4.3928      2.00000
     13       5.0967      2.00000
     14       5.9309      2.00000
     15       6.2844      2.00000
     16       6.4398      2.00000
     17       7.6942      1.98086
     18       7.9743     -0.01601
     19       8.0219     -0.00259
     20       9.4651     -0.00000
     21      10.1579     -0.00000
     22      10.5982      0.00000
     23      11.6114      0.00000
     24      12.0833      0.00000

 k-point    51 :      -0.2222   -0.4444    0.3333
  band No.  band energies     occupation 
      1     -40.5293      2.00000
      2     -40.5063      2.00000
      3     -18.9338      2.00000
      4     -18.9308      2.00000
      5     -18.6413      2.00000
      6     -18.5687      2.00000
      7     -18.3234      2.00000
      8     -18.3196      2.00000
      9       1.4613      2.00000
     10       2.8344      2.00000
     11       3.9017      2.00000
     12       5.0427      2.00000
     13       5.6248      2.00000
     14       6.7297      2.00000
     15       7.0778      2.00000
     16       7.2833      2.00000
     17       7.3625      2.00000
     18       7.9810     -0.01283
     19       8.0761     -0.00017
     20       9.3980     -0.00000
     21      10.8040      0.00000
     22      11.0734      0.00000
     23      11.4093      0.00000
     24      12.1059      0.00000

 k-point    52 :      -0.1111   -0.4444    0.3333
  band No.  band energies     occupation 
      1     -40.5351      2.00000
      2     -40.5069      2.00000
      3     -18.9450      2.00000
      4     -18.9384      2.00000
      5     -18.5674      2.00000
      6     -18.4942      2.00000
      7     -18.3519      2.00000
      8     -18.3409      2.00000
      9       1.1035      2.00000
     10       2.4334      2.00000
     11       3.6436      2.00000
     12       4.7747      2.00000
     13       5.6971      2.00000
     14       6.5133      2.00000
     15       7.0263      2.00000
     16       7.5703      2.01398
     17       7.7645      1.16645
     18       8.3740     -0.00000
     19       9.1442     -0.00000
     20      10.3164     -0.00000
     21      10.8679      0.00000
     22      11.1875      0.00000
     23      11.4879      0.00000
     24      11.6773      0.00000

 k-point    53 :      -0.2222   -0.2222    0.3333
  band No.  band energies     occupation 
      1     -40.5742      2.00000
      2     -40.4731      2.00000
      3     -18.8852      2.00000
      4     -18.8190      2.00000
      5     -18.7718      2.00000
      6     -18.4396      2.00000
      7     -18.3584      2.00000
      8     -18.2945      2.00000
      9      -0.0673      2.00000
     10       2.8317      2.00000
     11       4.5976      2.00000
     12       5.6176      2.00000
     13       5.7279      2.00000
     14       6.1726      2.00000
     15       6.7709      2.00000
     16       7.4515      2.00005
     17       7.6121      2.04402
     18       8.1083     -0.00002
     19       9.5099     -0.00000
     20       9.6383     -0.00000
     21      10.1089     -0.00000
     22      11.0902      0.00000
     23      11.5664      0.00000
     24      12.0822      0.00000

 k-point    54 :      -0.1111   -0.1111    0.3333
  band No.  band energies     occupation 
      1     -40.6058      2.00000
      2     -40.4539      2.00000
      3     -18.8548      2.00000
      4     -18.7549      2.00000
      5     -18.7458      2.00000
      6     -18.4535      2.00000
      7     -18.3199      2.00000
      8     -18.2771      2.00000
      9      -0.8361      2.00000
     10       1.8323      2.00000
     11       4.0766      2.00000
     12       5.8499      2.00000
     13       6.1905      2.00000
     14       7.1265      2.00000
     15       7.2290      2.00000
     16       8.3186     -0.00000
     17       8.3305     -0.00000
     18       8.9125     -0.00000
     19       9.7195     -0.00000
     20       9.8534     -0.00000
     21      10.1891     -0.00000
     22      10.7022      0.00000
     23      11.8599      0.00000
     24      12.0888      0.00000


--------------------------------------------------------------------------------------------------------


 soft charge-density along one line, spin component           1
         0         1         2         3         4         5         6         7         8         9
 total charge-density along one line
 
 pseudopotential strength for first ion, spin component:           1
 13.597 -26.403  -0.000   0.001  -0.000   0.000   0.005   0.000
-26.403  14.098  -0.000  -0.009  -0.000   0.000   0.001   0.000
 -0.000  -0.000  -6.401   0.000  -0.000   5.158  -0.000   0.000
  0.001  -0.009   0.000  -6.406   0.000  -0.000   5.173  -0.000
 -0.000  -0.000  -0.000   0.000  -6.401   0.000  -0.000   5.158
  0.000   0.000   5.158  -0.000   0.000   8.314   0.000  -0.000
  0.005   0.001  -0.000   5.173  -0.000   0.000   8.305   0.000
  0.000   0.000   0.000  -0.000   5.158  -0.000   0.000   8.314
 -0.000  -0.000  -0.000  -0.000  -0.000   0.000   0.000   0.000
  0.000   0.000  -0.001  -0.000  -0.000   0.002   0.000   0.000
 -0.004  -0.006   0.000  -0.005   0.000  -0.000   0.005  -0.000
  0.000   0.000  -0.000  -0.000  -0.001   0.000   0.000   0.002
  0.000  -0.000   0.000  -0.000  -0.000  -0.000  -0.000   0.000
 -0.000  -0.000  -0.000  -0.000  -0.000   0.000   0.000   0.000
  0.000   0.000  -0.002  -0.000  -0.000   0.002   0.000   0.000
 -0.005  -0.008   0.000  -0.007   0.000  -0.000   0.006  -0.000
  0.000   0.000  -0.000  -0.000  -0.002   0.000   0.000   0.002
  0.000  -0.000   0.000  -0.000  -0.000  -0.000  -0.000   0.000
 total augmentation occupancy for first ion, spin component:           1
  1.997  -0.031  -0.000   0.001   0.000   0.000   0.000   0.000   0.000   0.000  -0.011  -0.000   0.000   0.000   0.000   0.011
 -0.031   1.292   0.000   0.013   0.000   0.000  -0.025   0.000   0.000  -0.000  -0.045   0.000   0.000   0.000   0.000  -0.011
 -0.000   0.000   2.005  -0.000   0.000  -0.032  -0.000   0.000   0.000  -0.018   0.000   0.000   0.000  -0.000   0.022  -0.000
  0.001   0.013  -0.000   2.005  -0.000  -0.000  -0.030   0.000   0.000   0.000  -0.002   0.000   0.000   0.000   0.000  -0.002
  0.000   0.000   0.000  -0.000   2.005   0.000   0.000  -0.032   0.000  -0.000   0.000  -0.018  -0.000   0.000  -0.000   0.000
  0.000   0.000  -0.032  -0.000   0.000   0.042   0.000   0.000  -0.000  -0.014   0.000  -0.000   0.000   0.000  -0.006  -0.000
  0.000  -0.025   0.000  -0.030   0.000   0.000   0.039  -0.000   0.000  -0.000   0.040   0.000   0.000   0.000   0.000  -0.017
 -0.000   0.000   0.000   0.000  -0.032   0.000   0.000   0.042   0.000   0.000   0.000  -0.014  -0.000   0.000   0.000   0.000
  0.000   0.000   0.000   0.000   0.000  -0.000   0.000   0.000   3.869  -0.000   0.000  -0.000   0.000  -2.007   0.000   0.000
 -0.000  -0.000  -0.018   0.000   0.000  -0.014  -0.000   0.000  -0.000   3.643  -0.000   0.000   0.000   0.000  -1.855   0.000
 -0.011  -0.045   0.000  -0.002   0.000   0.000   0.040   0.000   0.000  -0.000   4.014  -0.000   0.000   0.000   0.000  -2.188
 -0.000   0.000   0.000   0.000  -0.018   0.000   0.000  -0.014  -0.000   0.000  -0.000   3.643  -0.000  -0.000   0.000   0.000
  0.000   0.000   0.000   0.000  -0.000   0.000   0.000   0.000   0.000   0.000   0.000  -0.000   3.684   0.000  -0.000   0.000
  0.000   0.000  -0.000   0.000   0.000   0.000   0.000   0.000  -2.007   0.000   0.000   0.000   0.000   1.064  -0.000   0.000
  0.000   0.000   0.022   0.000  -0.000  -0.006   0.000   0.000   0.000  -1.855   0.000   0.000  -0.000  -0.000   0.965   0.000
  0.011  -0.011  -0.000  -0.002  -0.000  -0.000  -0.017   0.000   0.000   0.000  -2.188   0.000   0.000   0.000  -0.000   1.205
  0.000  -0.000   0.000   0.000   0.022  -0.000   0.000  -0.006  -0.000   0.000   0.000  -1.855   0.000  -0.000   0.000  -0.000
  0.000   0.000   0.000   0.000  -0.000   0.000   0.000   0.000   0.000  -0.000   0.000   0.000  -1.884   0.000   0.000   0.000


------------------------ aborting loop because EDIFF is reached ----------------------------------------


 


 total charge     
 
# of ion       s       p       d       tot
------------------------------------------
    1        2.201   5.976   1.663   9.840
    2        2.201   5.976   1.663   9.840
    3        0.426   0.360   0.000   0.786
    4        0.459   0.316   0.000   0.775
    5        0.426   0.360   0.000   0.786
--------------------------------------------------
tot          5.714  12.988   3.325  22.027
 
    CHARGE:  cpu time    0.1137: real time    0.1141
    FORLOC:  cpu time    0.0019: real time    0.0019
    FORNL :  cpu time    0.3182: real time    0.3192
    STRESS:  cpu time    1.1974: real time    1.2017
    FORCOR:  cpu time    0.0193: real time    0.0193
    FORHAR:  cpu time    0.0045: real time    0.0045
    MIXING:  cpu time    0.0006: real time    0.0006
    OFIELD:  cpu time    0.0000: real time    0.0000

  FORCE on cell =-STRESS in cart. coord.  units (eV):
  Direction    XX          YY          ZZ          XY          YZ          ZX
  --------------------------------------------------------------------------------------
  Alpha Z    73.41267    73.41267    73.41267
  Ewald    -346.30488  -346.30488 -1148.74594     0.00000    -0.00000    -0.00000
  Hartree   528.70637   528.70637  -211.67101     0.00000    -0.00000    -0.00000
  E(xc)    -127.09282  -127.09282  -127.48067    -0.00000     0.00000     0.00000
  Local    -665.62871  -665.62871   880.72627     0.00000     0.00000     0.00000
  n-local    20.55733    37.65365    37.17280    -0.76701     0.38259    -0.06007
  augment     3.43513     3.43513     2.13136    -0.00000    -0.00000    -0.00000
  Kinetic   510.15044   498.57873   494.45583     0.46977     0.41893    -0.09742
  Fock        0.00000     0.00000     0.00000     0.00000     0.00000     0.00000
  -------------------------------------------------------------------------------------
  Total      -0.00216    -0.00216     0.00132     0.00000    -0.00000     0.00000
  in kB      -0.03530    -0.03530     0.02151     0.00000    -0.00000     0.00000
  external pressure =       -0.02 kB  Pullay stress =        0.00 kB


 VOLUME and BASIS-vectors are now :
 -----------------------------------------------------------------------------
  energy-cutoff  :      520.00
  volume of cell :       98.03
      direct lattice vectors                 reciprocal lattice vectors
     0.000000000 -3.617071500  0.000000000    -0.000000000 -0.276466749 -0.066729048
    -3.617071500 -0.000000000  0.000000000    -0.276466749 -0.000000000 -0.066729048
     1.808535750  1.808535750 -7.492988713    -0.000000000 -0.000000000 -0.133458095

  length of vectors
     3.617071500  3.617071500  7.917479585     0.284405748  0.284405748  0.133458095


 FORCES acting on ions
    electron-ion (+dipol)            ewald-force                    non-local-force                 convergence-correction
 -----------------------------------------------------------------------------------------------
   -.391E-04 -.391E-04 -.284E+03   -.519E-05 -.519E-05 0.283E+03   -.139E-16 -.139E-16 0.131E+01   -.608E-11 -.709E-11 0.484E-03
   0.254E-04 0.254E-04 0.284E+03   0.519E-05 0.519E-05 -.283E+03   0.139E-16 0.139E-16 -.131E+01   0.486E-10 0.488E-10 -.484E-03
   0.105E-05 0.105E-05 0.105E+03   -.129E-05 -.129E-05 -.102E+03   0.139E-16 0.139E-16 -.206E+01   -.282E-11 -.283E-11 -.124E-03
   -.208E-05 -.208E-05 -.122E-05   -.700E-12 -.699E-12 0.162E-11   0.662E-23 0.000E+00 -.397E-22   0.587E-12 0.582E-12 -.116E-10
   -.155E-05 -.155E-05 -.105E+03   0.129E-05 0.129E-05 0.102E+03   -.104E-16 -.173E-16 0.206E+01   0.130E-11 0.133E-11 0.124E-03
 -----------------------------------------------------------------------------------------------
   -.163E-04 -.163E-04 0.294E-04   -.626E-15 -.206E-14 -.284E-13   0.347E-17 -.347E-17 -.133E-14   0.416E-10 0.408E-10 0.501E-10
 
 
 POSITION                                       TOTAL-FORCE (eV/Angst)
 -----------------------------------------------------------------------------------
     -1.80854     -1.80854     -4.42547        -0.000000     -0.000000      0.000248
     -0.00000     -0.00000     -6.06471         0.000000      0.000000     -0.000248
      0.00000      0.00000     -0.08858        -0.000000     -0.000000     -0.001583
     -1.80854     -1.80854     -1.49860        -0.000000     -0.000000      0.000000
     -0.00000     -0.00000     -2.90862         0.000000      0.000000      0.001583
 -----------------------------------------------------------------------------------
    total drift:                               -0.000016     -0.000016      0.000029


--------------------------------------------------------------------------------------------------------



  FREE ENERGIE OF THE ION-ELECTRON SYSTEM (eV)
  ---------------------------------------------------
  free  energy   TOTEN  =       -29.34716490 eV

  energy  without entropy=      -29.34773866  energy(sigma->0) =      -29.34735616
 
 d Force = 0.2972937E-06[ 0.258E-06, 0.336E-06]  d Energy = 0.2640222E-06 0.333E-07
 d Force = 0.3224319E-01[ 0.322E-01, 0.322E-01]  d Ewald  = 0.4139018E-01-0.915E-02


--------------------------------------------------------------------------------------------------------


    POTLOK:  cpu time    0.1369: real time    0.1372


--------------------------------------------------------------------------------------------------------


 Conjugate gradient step on ions:
 trial-energy change:   -0.000000  1 .order   -0.000000   -0.000000   -0.000000
  (g-gl).g = 0.569E-06      g.g   = 0.533E-06  gl.gl    = 0.810E-05
 g(Force)  = 0.412E-06   g(Stress)= 0.121E-06 ortho     =-0.808E-07
 gamma     =   0.07026
 trial     =   0.73069
 opt step  =   2.92277  (harmonic =   3.21463) maximal distance =0.00030804
 next E    =   -29.347165   (d E  =  -0.00000)


--------------------------------------------------------------------------------------------------------


  
 reached required accuracy - stopping structural energy minimisation
     LOOP+:  cpu time    6.0176: real time    6.2355
    4ORBIT:  cpu time    0.0000: real time    0.0000
 


 total charge     
 
# of ion       s       p       d       tot
------------------------------------------
    1        2.201   5.976   1.663   9.840
    2        2.201   5.976   1.663   9.840
    3        0.426   0.360   0.000   0.786
    4        0.459   0.316   0.000   0.775
    5        0.426   0.360   0.000   0.786
--------------------------------------------------
tot          5.714  12.988   3.325  22.027
 

 total amount of memory used by VASP MPI-rank0    92522. kBytes
=======================================================================

   base      :      30000. kBytes
   nonl-proj :      41768. kBytes
   fftplans  :       8274. kBytes
   grid      :       5312. kBytes
   one-center:         77. kBytes
   wavefun   :       7091. kBytes
 
  
  
 General timing and accounting informations for this job:
 ========================================================
  
                  Total CPU time used (sec):      432.459
                            User time (sec):      408.686
                          System time (sec):       23.773
                         Elapsed time (sec):      438.527
  
                   Maximum memory used (kb):      345724.
                   Average memory used (kb):           0.
  
                          Minor page faults:      4575965
                          Major page faults:            0
                 Voluntary context switches:         4166
