    1    1    1    1
  0.1181041E+02  0.2556191E-09  0.2556191E-09  0.2556191E-09  0.5000000E-15
  1.000000000000000E-004
  CAR 
 unknown system                          
     11     50     12
 
  0.0000000E+00  0.0000000E+00  0.0000000E+00  0.2000000E-01
    1       -1.754170   1.000000
    2        4.519676   1.000000
    3        4.519678   1.000000
    4        4.519678   1.000000
    5        5.308509   1.000000
    6        5.308509   1.000000
    7       30.226004   0.000000
    8       32.834133   0.000000
    9       32.834166   0.000000
   10       32.834166   0.000000
   11       35.323128   0.000000
   12       35.323142   0.000000
 
  0.5555556E-01  0.0000000E+00  0.5555556E-01  0.2000000E-01
    1       -1.604225   1.000000
    2        4.477338   1.000000
    3        4.556142   1.000000
    4        4.556144   1.000000
    5        5.270954   1.000000
    6        5.324809   1.000000
    7       29.719316   0.000000
    8       31.439191   0.000000
    9       31.439211   0.000000
   10       32.221882   0.000000
   11       36.149722   0.000000
   12       36.792517   0.000000
 
  0.1111111E+00  0.0000000E+00  0.1111111E+00  0.2000000E-01
    1       -1.160146   1.000000
    2        4.356484   1.000000
    3        4.677523   1.000000
    4        4.677525   1.000000
    5        5.196326   1.000000
    6        5.373149   1.000000
    7       28.723726   0.000000
    8       29.372355   0.000000
    9       29.372374   0.000000
   10       30.935075   0.000000
   11       36.564814   0.000000
   12       38.102478   0.000000
 
  0.1666667E+00  0.0000000E+00  0.1666667E+00  0.2000000E-01
    1       -0.443346   1.000000
    2        4.166410   1.000000
    3        4.824670   1.000000
    4        4.824672   1.000000
    5        5.032642   1.000000
    6        5.445304   1.000000
    7       27.366915   0.000000
    8       27.366933   0.000000
    9       27.734584   0.000000
   10       29.418992   0.000000
   11       33.102311   0.000000
   12       40.682871   0.000000
 
  0.2222222E+00  0.0000000E+00  0.2222222E+00  0.2000000E-01
    1        0.494941   1.000000
    2        3.950703   1.000000
    3        4.922019   1.000000
    4        5.105164   1.000000
    5        5.105165   1.000000
    6        5.566547   1.000000
    7       25.528828   0.000000
    8       25.528846   0.000000
    9       26.900744   0.000000
   10       27.326426   0.000000
   11       30.479701   0.000000
   12       43.605286   0.000000
 
  0.2777778E+00  0.0000000E+00  0.2777778E+00  0.2000000E-01
    1        1.519612   1.000000
    2        3.718453   1.000000
    3        4.976392   1.000000
    4        5.345207   1.000000
    5        5.345208   1.000000
    6        5.654220   1.000000
    7       23.910735   0.000000
    8       23.910753   0.000000
    9       24.368342   0.000000
   10       26.237935   0.000000
   11       29.142056   0.000000
   12       45.776424   0.000000
 
  0.3333333E+00  0.0000000E+00  0.3333333E+00  0.2000000E-01
    1        2.303469   1.000000
    2        3.506365   1.000000
    3        5.481040   1.000000
    4        5.588774   1.000000
    5        5.588774   1.000000
    6        5.740088   1.000000
    7       21.225788   0.000000
    8       22.563647   0.000000
    9       22.563665   0.000000
   10       25.745285   0.000000
   11       28.455184   0.000000
   12       48.060202   0.000000
 
  0.3888889E+00  0.0000000E+00  0.3888889E+00  0.2000000E-01
    1        2.608912   1.000000
    2        3.282813   1.000000
    3        5.784626   1.000000
    4        5.804924   1.000000
    5        5.804924   1.000000
    6        6.703160   0.853585
    7       18.278370   0.000000
    8       21.540578   0.000000
    9       21.540596   0.000000
   10       25.407081   0.000000
   11       28.072252   0.000000
   12       49.084341   0.000000
 
  0.4444444E+00  0.0000000E+00  0.4444444E+00  0.2000000E-01
    1        2.665363   1.000000
    2        3.172390   1.000000
    3        5.830389   1.000000
    4        5.967886   1.000000
    5        5.967886   1.000000
    6        8.237489   0.000000
    7       15.819179   0.000000
    8       20.898680   0.000000
    9       20.898698   0.000000
   10       25.211047   0.000000
   11       27.878422   0.000000
   12       49.572877   0.000000
 
  0.5000000E+00  0.0000000E+00  0.5000000E+00  0.2000000E-01
    1        2.669079   1.000000
    2        3.166014   1.000000
    3        5.846373   1.000000
    4        6.038241   1.000000
    5        6.038241   1.000000
    6        9.098795   0.000000
    7       14.664290   0.000000
    8       20.679752   0.000000
    9       20.679770   0.000000
   10       25.149459   0.000000
   11       27.819526   0.000000
   12       49.780310   0.000000
 
  0.5000000E+00  0.0000000E+00  0.5000000E+00  0.2000000E-01
    1        2.669079   1.000000
    2        3.166014   1.000000
    3        5.846373   1.000000
    4        6.038241   1.000000
    5        6.038241   1.000000
    6        9.098795   0.000000
    7       14.664290   0.000000
    8       20.679752   0.000000
    9       20.679770   0.000000
   10       25.149459   0.000000
   11       27.819526   0.000000
   12       49.780182   0.000000
 
  0.5000000E+00  0.2777778E-01  0.5277778E+00  0.2000000E-01
    1        2.683828   1.000000
    2        3.145016   1.000000
    3        5.833741   1.000000
    4        5.959765   1.000000
    5        6.026062   1.000000
    6        9.199374   0.000000
    7       14.677679   0.000000
    8       20.410070   0.000000
    9       20.510705   0.000000
   10       25.462372   0.000000
   11       28.069842   0.000000
   12       49.395367   0.000000
 
  0.5000000E+00  0.5555556E-01  0.5555556E+00  0.2000000E-01
    1        2.743833   1.000000
    2        3.195835   1.000000
    3        5.786175   1.000000
    4        5.809322   1.000000
    5        6.025777   1.000000
    6        9.478651   0.000000
    7       14.720409   0.000000
    8       19.757395   0.000000
    9       20.068251   0.000000
   10       26.255976   0.000000
   11       28.757961   0.000000
   12       48.232863   0.000000
 
  0.5000000E+00  0.8333333E-01  0.5833333E+00  0.2000000E-01
    1        2.824045   1.000000
    2        3.241716   1.000000
    3        5.541596   1.000000
    4        5.747247   1.000000
    5        6.024522   1.000000
    6        9.890867   0.000000
    7       14.791672   0.000000
    8       18.931320   0.000000
    9       19.473777   0.000000
   10       27.312923   0.000000
   11       29.758577   0.000000
   12       46.564904   0.000000
 
  0.5000000E+00  0.1111111E+00  0.6111111E+00  0.2000000E-01
    1        2.939053   1.000000
    2        3.336970   1.000000
    3        5.270688   1.000000
    4        5.673049   1.000000
    5        6.028124   1.000000
    6       10.398450   0.000000
    7       14.896463   0.000000
    8       18.048657   0.000000
    9       18.828280   0.000000
   10       28.521998   0.000000
   11       30.967797   0.000000
   12       44.731427   0.000000
 
  0.5000000E+00  0.1388889E+00  0.6388889E+00  0.2000000E-01
    1        3.060516   1.000000
    2        3.426070   1.000000
    3        4.994432   1.000000
    4        5.575992   1.000000
    5        6.026895   1.000000
    6       10.976774   0.000000
    7       15.036444   0.000000
    8       17.154810   0.000000
    9       18.189045   0.000000
   10       29.834923   0.000000
   11       32.312764   0.000000
   12       42.871898   0.000000
 
  0.5000000E+00  0.1666667E+00  0.6666667E+00  0.2000000E-01
    1        3.186117   1.000000
    2        3.539020   1.000000
    3        4.727585   1.000000
    4        5.474922   1.000000
    5        6.025988   1.000000
    6       11.611750   0.000000
    7       15.216369   0.000000
    8       16.272642   0.000000
    9       17.592643   0.000000
   10       31.231689   0.000000
   11       33.737662   0.000000
   12       41.038168   0.000000
 
  0.5000000E+00  0.1944444E+00  0.6944444E+00  0.2000000E-01
    1        3.299311   1.000000
    2        3.676219   1.000000
    3        4.477737   1.000000
    4        5.383591   1.000000
    5        6.025374   1.000000
    6       12.294784   0.000000
    7       15.412853   0.000000
    8       15.438026   0.000000
    9       17.060321   0.000000
   10       32.702608   0.000000
   11       35.170417   0.000000
   12       39.250662   0.000000
 
  0.5000000E+00  0.2222222E+00  0.7222222E+00  0.2000000E-01
    1        3.378018   1.000000
    2        3.837933   1.000000
    3        4.229256   1.000000
    4        5.313932   1.000000
    5        6.025019   1.000000
    6       13.018409   0.000000
    7       14.581487   0.000000
    8       15.690653   0.000000
    9       16.616350   0.000000
   10       34.242830   0.000000
   11       36.441542   0.000000
   12       37.517056   0.000000
 
  0.5000000E+00  0.2500000E+00  0.7500000E+00  0.2000000E-01
    1        3.406971   1.000000
    2        4.019755   1.000000
    3        4.019759   1.000000
    4        5.266506   1.000000
    5        6.024901   1.000000
    6       13.782142   0.000000
    7       13.782200   0.000000
    8       15.860119   0.000000
    9       16.381701   0.000000
   10       35.847109   0.000000
   11       35.847145   0.000000
   12       37.042926   0.000000
 
  0.5000000E+00  0.2500000E+00  0.7500000E+00  0.2000000E-01
    1        3.406971   1.000000
    2        4.019755   1.000000
    3        4.019759   1.000000
    4        5.266506   1.000000
    5        6.024901   1.000000
    6       13.782142   0.000000
    7       13.782200   0.000000
    8       15.860119   0.000000
    9       16.381701   0.000000
   10       35.847109   0.000000
   11       35.847145   0.000000
   12       37.042927   0.000000
 
  0.5000000E+00  0.2777778E+00  0.7222222E+00  0.2000000E-01
    1        3.434949   1.000000
    2        3.971683   1.000000
    3        4.043549   1.000000
    4        5.265992   1.000000
    5        5.994198   1.000000
    6       13.187352   0.000000
    7       13.459287   0.000000
    8       16.543523   0.000000
    9       16.909999   0.000000
   10       34.936713   0.000000
   11       35.774072   0.000000
   12       38.064493   0.000000
 
  0.5000000E+00  0.3055556E+00  0.6944444E+00  0.2000000E-01
    1        3.521552   1.000000
    2        3.842840   1.000000
    3        4.122552   1.000000
    4        5.250906   1.000000
    5        5.923016   1.000000
    6       12.165170   0.000000
    7       12.882035   0.000000
    8       17.833035   0.000000
    9       18.093332   0.000000
   10       33.724846   0.000000
   11       35.581705   0.000000
   12       39.612066   0.000000
 
  0.5000000E+00  0.3333333E+00  0.6666667E+00  0.2000000E-01
    1        3.633011   1.000000
    2        3.649321   1.000000
    3        4.222201   1.000000
    4        5.176125   1.000000
    5        5.859263   1.000000
    6       11.126170   0.000000
    7       12.363899   0.000000
    8       19.312241   0.000000
    9       19.582570   0.000000
   10       32.605486   0.000000
   11       35.321120   0.000000
   12       41.291760   0.000000
 
  0.5000000E+00  0.3611111E+00  0.6388889E+00  0.2000000E-01
    1        3.388214   1.000000
    2        3.828767   1.000000
    3        4.375617   1.000000
    4        5.058413   1.000000
    5        5.839068   1.000000
    6       10.140182   0.000000
    7       11.970281   0.000000
    8       20.915640   0.000000
    9       21.264698   0.000000
   10       31.621531   0.000000
   11       35.036167   0.000000
   12       43.179816   0.000000
 
  0.5000000E+00  0.3888889E+00  0.6111111E+00  0.2000000E-01
    1        3.128582   1.000000
    2        4.051113   1.000000
    3        4.589311   1.000000
    4        4.882924   1.000000
    5        5.847414   1.000000
    6        9.224138   0.000000
    7       11.693436   0.000000
    8       22.620872   0.000000
    9       23.085291   0.000000
   10       30.787637   0.000000
   11       34.733885   0.000000
   12       41.036768   0.000000
 
  0.5000000E+00  0.4166667E+00  0.5833333E+00  0.2000000E-01
    1        2.875826   1.000000
    2        4.235773   1.000000
    3        4.722922   1.000000
    4        4.847847   1.000000
    5        5.855884   1.000000
    6        8.383096   0.000000
    7       11.506955   0.000000
    8       24.412682   0.000000
    9       24.997624   0.000000
   10       30.124581   0.000000
   11       34.390636   0.000000
   12       38.427327   0.000000
 
  0.5000000E+00  0.4444444E+00  0.5555556E+00  0.2000000E-01
    1        2.671338   1.000000
    2        4.379936   1.000000
    3        4.599065   1.000000
    4        5.182072   1.000000
    5        5.874710   1.000000
    6        7.620784   0.000000
    7       11.390554   0.000000
    8       26.250812   0.000000
    9       26.934110   0.000000
   10       29.654452   0.000000
   11       33.924043   0.000000
   12       35.990812   0.000000
 
  0.5000000E+00  0.4722222E+00  0.5277778E+00  0.2000000E-01
    1        2.538375   1.000000
    2        4.469692   1.000000
    3        4.523236   1.000000
    4        5.595666   1.000000
    5        5.882632   1.000000
    6        6.965296   0.211378
    7       11.327081   0.000000
    8       27.966986   0.000000
    9       28.719482   0.000000
   10       29.448043   0.000000
   11       33.220343   0.000000
   12       33.833629   0.000000
 
  0.5000000E+00  0.5000000E+00  0.5000000E+00  0.2000000E-01
    1        2.492701   1.000000
    2        4.496633   1.000000
    3        4.496633   1.000000
    4        5.886023   1.000000
    5        5.886023   1.000000
    6        6.594847   0.965455
    7       11.307056   0.000000
    8       28.702702   0.000000
    9       29.664443   0.000000
   10       29.664443   0.000000
   11       32.663782   0.000000
   12       32.663782   0.000000
 
  0.5000000E+00  0.5000000E+00  0.5000000E+00  0.2000000E-01
    1        2.492701   1.000000
    2        4.496633   1.000000
    3        4.496633   1.000000
    4        5.886023   1.000000
    5        5.886023   1.000000
    6        6.594847   0.965455
    7       11.307056   0.000000
    8       28.702702   0.000000
    9       29.664443   0.000000
   10       29.664443   0.000000
   11       32.663782   0.000000
   12       32.663782   0.000000
 
  0.4444444E+00  0.4444444E+00  0.4444444E+00  0.2000000E-01
    1        2.428656   1.000000
    2        4.511630   1.000000
    3        4.511630   1.000000
    4        5.853324   1.000000
    5        5.853324   1.000000
    6        6.067660   1.000000
    7       12.114894   0.000000
    8       28.788925   0.000000
    9       29.686820   0.000000
   10       29.686820   0.000000
   11       32.858054   0.000000
   12       32.858055   0.000000
 
  0.3888889E+00  0.3888889E+00  0.3888889E+00  0.2000000E-01
    1        2.176157   1.000000
    2        4.562344   1.000000
    3        4.562344   1.000000
    4        5.157038   1.000000
    5        5.773304   1.000000
    6        5.773304   1.000000
    7       13.927977   0.000000
    8       29.038065   0.000000
    9       29.768751   0.000000
   10       29.768751   0.000000
   11       33.420827   0.000000
   12       33.420827   0.000000
 
  0.3333333E+00  0.3333333E+00  0.3333333E+00  0.2000000E-01
    1        1.607402   1.000000
    2        4.532069   1.000000
    3        4.589086   1.000000
    4        4.589086   1.000000
    5        5.628007   1.000000
    6        5.628007   1.000000
    7       16.181348   0.000000
    8       29.411939   0.000000
    9       29.938627   0.000000
   10       29.938627   0.000000
   11       34.295325   0.000000
   12       34.295325   0.000000
 
  0.2777778E+00  0.2777778E+00  0.2777778E+00  0.2000000E-01
    1        0.797802   1.000000
    2        4.320821   1.000000
    3        4.664286   1.000000
    4        4.664286   1.000000
    5        5.503515   1.000000
    6        5.503515   1.000000
    7       18.694252   0.000000
    8       29.861616   0.000000
    9       30.219813   0.000000
   10       30.219813   0.000000
   11       35.442484   0.000000
   12       35.442484   0.000000
 
  0.2222222E+00  0.2222222E+00  0.2222222E+00  0.2000000E-01
    1       -0.042281   1.000000
    2        4.305047   1.000000
    3        4.687940   1.000000
    4        4.687940   1.000000
    5        5.368551   1.000000
    6        5.368551   1.000000
    7       21.394227   0.000000
    8       30.296765   0.000000
    9       30.623164   0.000000
   10       30.623164   0.000000
   11       36.761624   0.000000
   12       36.781768   0.000000
 
  0.1666667E+00  0.1666667E+00  0.1666667E+00  0.2000000E-01
    1       -0.765436   1.000000
    2        4.349385   1.000000
    3        4.665245   1.000000
    4        4.665245   1.000000
    5        5.308361   1.000000
    6        5.308361   1.000000
    7       24.228454   0.000000
    8       30.641303   0.000000
    9       31.152655   0.000000
   10       31.152655   0.000000
   11       37.171203   0.000000
   12       37.729691   0.000000
 
  0.1111111E+00  0.1111111E+00  0.1111111E+00  0.2000000E-01
    1       -1.307832   1.000000
    2        4.441318   1.000000
    3        4.597232   1.000000
    4        4.597232   1.000000
    5        5.286828   1.000000
    6        5.286828   1.000000
    7       27.111682   0.000000
    8       30.901401   0.000000
    9       31.792018   0.000000
   10       31.792018   0.000000
   11       36.956179   0.000000
   12       36.963300   0.000000
 
  0.5555556E-01  0.5555556E-01  0.5555556E-01  0.2000000E-01
    1       -1.641653   1.000000
    2        4.498384   1.000000
    3        4.541270   1.000000
    4        4.541270   1.000000
    5        5.300986   1.000000
    6        5.300986   1.000000
    7       29.564867   0.000000
    8       31.474476   0.000000
    9       32.464982   0.000000
   10       32.464984   0.000000
   11       35.853307   0.000000
   12       35.853359   0.000000
 
  0.0000000E+00  0.0000000E+00  0.0000000E+00  0.2000000E-01
    1       -1.754170   1.000000
    2        4.519676   1.000000
    3        4.519678   1.000000
    4        4.519678   1.000000
    5        5.308509   1.000000
    6        5.308509   1.000000
    7       30.226003   0.000000
    8       32.834133   0.000000
    9       32.834166   0.000000
   10       32.834171   0.000000
   11       35.323123   0.000000
   12       35.323143   0.000000
 
  0.0000000E+00  0.0000000E+00  0.0000000E+00  0.2000000E-01
    1       -1.754170   1.000000
    2        4.519676   1.000000
    3        4.519678   1.000000
    4        4.519678   1.000000
    5        5.308509   1.000000
    6        5.308509   1.000000
    7       30.226007   0.000000
    8       32.834140   0.000000
    9       32.834168   0.000000
   10       32.834164   0.000000
   11       35.323126   0.000000
   12       35.323135   0.000000
 
  0.4166667E-01  0.4166667E-01  0.8333333E-01  0.2000000E-01
    1       -1.585607   1.000000
    2        4.484042   1.000000
    3        4.549053   1.000000
    4        4.558700   1.000000
    5        5.281715   1.000000
    6        5.313216   1.000000
    7       29.355818   0.000000
    8       30.782870   0.000000
    9       31.951259   0.000000
   10       33.073022   0.000000
   11       35.409178   0.000000
   12       36.244371   0.000000
 
  0.8333333E-01  0.8333333E-01  0.1666667E+00  0.2000000E-01
    1       -1.087863   1.000000
    2        4.388723   1.000000
    3        4.634681   1.000000
    4        4.656871   1.000000
    5        5.216878   1.000000
    6        5.359957   1.000000
    7       26.950053   0.000000
    8       27.852011   0.000000
    9       32.158814   0.000000
   10       33.777937   0.000000
   11       35.671571   0.000000
   12       35.691058   0.000000
 
  0.1250000E+00  0.1250000E+00  0.2500000E+00  0.2000000E-01
    1       -0.288182   1.000000
    2        4.247340   1.000000
    3        4.696970   1.000000
    4        4.776116   1.000000
    5        5.134600   1.000000
    6        5.503002   1.000000
    7       24.324017   0.000000
    8       25.049057   0.000000
    9       33.032281   0.000000
   10       34.097916   0.000000
   11       34.860241   0.000000
   12       35.680664   0.000000
 
  0.1666667E+00  0.1666667E+00  0.3333333E+00  0.2000000E-01
    1        0.752130   1.000000
    2        4.130490   1.000000
    3        4.627372   1.000000
    4        4.949888   1.000000
    5        5.053265   1.000000
    6        5.802341   1.000000
    7       21.809302   0.000000
    8       22.511997   0.000000
    9       32.299374   0.000000
   10       32.871401   0.000000
   11       34.297996   0.000000
   12       36.478586   0.000000
 
  0.2083333E+00  0.2083333E+00  0.4166667E+00  0.2000000E-01
    1        1.900376   1.000000
    2        4.062339   1.000000
    3        4.488283   1.000000
    4        5.026216   1.000000
    5        5.149677   1.000000
    6        6.329897   0.999888
    7       19.457994   0.000000
    8       20.309756   0.000000
    9       30.366339   0.000000
   10       30.649970   0.000000
   11       35.893471   0.000000
   12       37.662069   0.000000
 
  0.2500000E+00  0.2500000E+00  0.5000000E+00  0.2000000E-01
    1        2.889469   1.000000
    2        4.029831   1.000000
    3        4.238126   1.000000
    4        5.004926   1.000000
    5        5.342437   1.000000
    6        7.224203   0.004239
    7       17.286022   0.000000
    8       18.485400   0.000000
    9       28.074174   0.000000
   10       29.271849   0.000000
   11       37.786219   0.000000
   12       38.799877   0.000000
 
  0.2916667E+00  0.2916667E+00  0.5833333E+00  0.2000000E-01
    1        3.444786   1.000000
    2        3.950508   1.000000
    3        4.154836   1.000000
    4        5.105619   1.000000
    5        5.556989   1.000000
    6        8.728111   0.000000
    7       15.300050   0.000000
    8       17.070652   0.000000
    9       26.020008   0.000000
   10       28.203315   0.000000
   11       39.966625   0.000000
   12       40.219408   0.000000
 
  0.3333333E+00  0.3333333E+00  0.6666667E+00  0.2000000E-01
    1        3.538890   1.000000
    2        3.676802   1.000000
    3        4.399704   1.000000
    4        5.277035   1.000000
    5        5.721028   1.000000
    6       10.813381   0.000000
    7       13.503363   0.000000
    8       16.057041   0.000000
    9       24.232557   0.000000
   10       27.417941   0.000000
   11       40.942607   0.000000
   12       41.933160   0.000000
 
  0.3750000E+00  0.3750000E+00  0.7500000E+00  0.2000000E-01
    1        3.271958   1.000000
    2        3.507964   1.000000
    3        4.780694   1.000000
    4        5.469686   1.000000
    5        5.858185   1.000000
    6       11.908872   0.000000
    7       13.304823   0.000000
    8       15.402102   0.000000
    9       22.751694   0.000000
   10       26.860811   0.000000
   11       36.496497   0.000000
   12       43.935601   0.000000
