PROCAR lm decomposed
# of k-points:  286         # of bands:   12         # of ions:    1

 k-point     1 :    0.00000000 0.00000000 0.00000000     weight = 0.00010798

band     1 # energy   -1.75417035 # occ.  2.00000000
 
ion      s     py     pz     px    dxy    dyz    dz2    dxz  x2-y2    tot
    1  0.586  0.000  0.000  0.000  0.000  0.000  0.000  0.000  0.000  0.586
 
band     2 # energy    4.51967590 # occ.  2.00000000
 
ion      s     py     pz     px    dxy    dyz    dz2    dxz  x2-y2    tot
    1  0.000  0.000  0.000  0.000  0.314  0.321  0.000  0.335  0.000  0.970
 
band     3 # energy    4.51967844 # occ.  2.00000000
 
ion      s     py     pz     px    dxy    dyz    dz2    dxz  x2-y2    tot
    1  0.000  0.000  0.000  0.000  0.460  0.503  0.000  0.007  0.000  0.970
 
band     4 # energy    4.51967845 # occ.  2.00000000
 
ion      s     py     pz     px    dxy    dyz    dz2    dxz  x2-y2    tot
    1  0.000  0.000  0.000  0.000  0.196  0.146  0.000  0.628  0.000  0.970
 
band     5 # energy    5.30850882 # occ.  2.00000000
 
ion      s     py     pz     px    dxy    dyz    dz2    dxz  x2-y2    tot
    1  0.000  0.000  0.000  0.000  0.000  0.000  0.450  0.000  0.539  0.989
 
band     6 # energy    5.30850882 # occ.  2.00000000
 
ion      s     py     pz     px    dxy    dyz    dz2    dxz  x2-y2    tot
    1  0.000  0.000  0.000  0.000  0.000  0.000  0.539  0.000  0.450  0.989
 
band     7 # energy   30.22600362 # occ.  0.00000000
 
ion      s     py     pz     px    dxy    dyz    dz2    dxz  x2-y2    tot
    1  0.000  0.000  0.000  0.000  0.000  0.000  0.000  0.000  0.000  0.000
 
band     8 # energy   32.83413251 # occ.  0.00000000
 
ion      s     py     pz     px    dxy    dyz    dz2    dxz  x2-y2    tot
    1  0.000  0.125  0.179  0.146  0.000  0.000  0.000  0.000  0.000  0.450
 
band     9 # energy   32.83416604 # occ.  0.00000000
 
ion      s     py     pz     px    dxy    dyz    dz2    dxz  x2-y2    tot
    1  0.000  0.055  0.131  0.263  0.000  0.000  0.000  0.000  0.000  0.450
 
band    10 # energy   32.83416601 # occ.  0.00000000
 
ion      s     py     pz     px    dxy    dyz    dz2    dxz  x2-y2    tot
    1  0.000  0.270  0.139  0.041  0.000  0.000  0.000  0.000  0.000  0.450
 
band    11 # energy   35.32312762 # occ.  0.00000000
 
ion      s     py     pz     px    dxy    dyz    dz2    dxz  x2-y2    tot
    1  0.000  0.000  0.000  0.000  0.694  0.017  0.000  0.053  0.000  0.763
 
band    12 # energy   35.32314152 # occ.  0.00000000
 
ion      s     py     pz     px    dxy    dyz    dz2    dxz  x2-y2    tot
    1  0.000  0.000  0.000  0.000  0.053  0.226  0.000  0.484  0.000  0.763
 

 k-point     2 :    0.04761905 0.00000000 0.00000000     weight = 0.00086384

band     1 # energy   -1.67145248 # occ.  2.00000000
 
ion      s     py     pz     px    dxy    dyz    dz2    dxz  x2-y2    tot
    1  0.582  0.001  0.001  0.001  0.000  0.000  0.000  0.000  0.000  0.586
 
band     2 # energy    4.50392327 # occ.  2.00000000
 
ion      s     py     pz     px    dxy    dyz    dz2    dxz  x2-y2    tot
    1  0.000  0.000  0.000  0.000  0.323  0.323  0.000  0.323  0.000  0.969
 
band     3 # energy    4.53567611 # occ.  2.00000000
 
ion      s     py     pz     px    dxy    dyz    dz2    dxz  x2-y2    tot
    1  0.000  0.000  0.000  0.000  0.162  0.646  0.000  0.162  0.000  0.970
 
band     4 # energy    4.53567811 # occ.  2.00000000
 
ion      s     py     pz     px    dxy    dyz    dz2    dxz  x2-y2    tot
    1  0.000  0.000  0.000  0.000  0.485  0.000  0.000  0.485  0.000  0.970
 
band     5 # energy    5.30284863 # occ.  2.00000000
 
ion      s     py     pz     px    dxy    dyz    dz2    dxz  x2-y2    tot
    1  0.000  0.000  0.000  0.000  0.000  0.000  0.247  0.000  0.742  0.989
 
band     6 # energy    5.30284911 # occ.  2.00000000
 
ion      s     py     pz     px    dxy    dyz    dz2    dxz  x2-y2    tot
    1  0.000  0.000  0.000  0.000  0.000  0.000  0.742  0.000  0.247  0.989
 
band     7 # energy   29.77805188 # occ.  0.00000000
 
ion      s     py     pz     px    dxy    dyz    dz2    dxz  x2-y2    tot
    1  0.001  0.013  0.013  0.013  0.034  0.034  0.000  0.034  0.000  0.141
 
band     8 # energy   31.66657972 # occ.  0.00000000
 
ion      s     py     pz     px    dxy    dyz    dz2    dxz  x2-y2    tot
    1  0.012  0.114  0.114  0.114  0.020  0.020  0.000  0.020  0.000  0.414
 
band     9 # energy   32.55020853 # occ.  0.00000000
 
ion      s     py     pz     px    dxy    dyz    dz2    dxz  x2-y2    tot
    1  0.000  0.068  0.070  0.277  0.014  0.056  0.001  0.014  0.003  0.502
 
band    10 # energy   32.55023738 # occ.  0.00000000
 
ion      s     py     pz     px    dxy    dyz    dz2    dxz  x2-y2    tot
    1  0.000  0.208  0.207  0.000  0.042  0.000  0.003  0.042  0.001  0.502
 
band    11 # energy   35.72590505 # occ.  0.00000000
 
ion      s     py     pz     px    dxy    dyz    dz2    dxz  x2-y2    tot
    1  0.000  0.009  0.005  0.018  0.104  0.372  0.000  0.193  0.001  0.702
 
band    12 # energy   35.72595440 # occ.  0.00000000
 
ion      s     py     pz     px    dxy    dyz    dz2    dxz  x2-y2    tot
    1  0.000  0.012  0.016  0.003  0.340  0.074  0.001  0.255  0.000  0.702
 

 k-point     3 :    0.09523810 0.00000000 0.00000000     weight = 0.00086384

band     1 # energy   -1.42526452 # occ.  2.00000000
 
ion      s     py     pz     px    dxy    dyz    dz2    dxz  x2-y2    tot
    1  0.569  0.005  0.005  0.005  0.000  0.000  0.000  0.000  0.000  0.586
 
band     2 # energy    4.46033556 # occ.  2.00000000
 
ion      s     py     pz     px    dxy    dyz    dz2    dxz  x2-y2    tot
    1  0.000  0.001  0.001  0.001  0.321  0.321  0.000  0.321  0.000  0.966
 
band     3 # energy    4.57900148 # occ.  2.00000000
 
ion      s     py     pz     px    dxy    dyz    dz2    dxz  x2-y2    tot
    1  0.000  0.000  0.000  0.000  0.160  0.642  0.002  0.161  0.005  0.971
 
band     4 # energy    4.57900260 # occ.  2.00000000
 
ion      s     py     pz     px    dxy    dyz    dz2    dxz  x2-y2    tot
    1  0.000  0.000  0.000  0.000  0.482  0.000  0.005  0.482  0.002  0.971
 
band     5 # energy    5.29035783 # occ.  2.00000000
 
ion      s     py     pz     px    dxy    dyz    dz2    dxz  x2-y2    tot
    1  0.000  0.000  0.000  0.000  0.001  0.005  0.245  0.001  0.736  0.988
 
band     6 # energy    5.29035985 # occ.  2.00000000
 
ion      s     py     pz     px    dxy    dyz    dz2    dxz  x2-y2    tot
    1  0.000  0.000  0.000  0.000  0.003  0.000  0.736  0.003  0.245  0.988
 
band     7 # energy   27.90722756 # occ.  0.00000000
 
ion      s     py     pz     px    dxy    dyz    dz2    dxz  x2-y2    tot
    1  0.016  0.067  0.067  0.067  0.077  0.077  0.000  0.077  0.000  0.446
 
band     8 # energy   30.98942340 # occ.  0.00000000
 
ion      s     py     pz     px    dxy    dyz    dz2    dxz  x2-y2    tot
    1  0.023  0.051  0.051  0.051  0.000  0.000  0.000  0.000  0.000  0.176
 
band     9 # energy   31.98787461 # occ.  0.00000000
 
ion      s     py     pz     px    dxy    dyz    dz2    dxz  x2-y2    tot
    1  0.000  0.066  0.062  0.256  0.028  0.116  0.003  0.030  0.008  0.569
 
band    10 # energy   31.98790002 # occ.  0.00000000
 
ion      s     py     pz     px    dxy    dyz    dz2    dxz  x2-y2    tot
    1  0.000  0.190  0.194  0.000  0.088  0.000  0.008  0.086  0.003  0.569
 
band    11 # energy   36.62055521 # occ.  0.00000000
 
ion      s     py     pz     px    dxy    dyz    dz2    dxz  x2-y2    tot
    1  0.000  0.015  0.023  0.010  0.260  0.114  0.009  0.166  0.004  0.600
 
band    12 # energy   36.62075423 # occ.  0.00000000
 
ion      s     py     pz     px    dxy    dyz    dz2    dxz  x2-y2    tot
    1  0.000  0.017  0.009  0.022  0.097  0.246  0.004  0.196  0.009  0.600
 

 k-point     4 :    0.14285714 0.00000000 0.00000000     weight = 0.00086384

band     1 # energy   -1.02194749 # occ.  2.00000000
 
ion      s     py     pz     px    dxy    dyz    dz2    dxz  x2-y2    tot
    1  0.549  0.012  0.012  0.012  0.001  0.001  0.000  0.001  0.000  0.588
 
band     2 # energy    4.41863417 # occ.  2.00000000
 
ion      s     py     pz     px    dxy    dyz    dz2    dxz  x2-y2    tot
    1  0.000  0.002  0.002  0.002  0.318  0.318  0.000  0.318  0.000  0.960
 
band     3 # energy    4.64363273 # occ.  2.00000000
 
ion      s     py     pz     px    dxy    dyz    dz2    dxz  x2-y2    tot
    1  0.000  0.000  0.000  0.000  0.539  0.016  0.039  0.372  0.006  0.972
 
band     4 # energy    4.64363341 # occ.  2.00000000
 
ion      s     py     pz     px    dxy    dyz    dz2    dxz  x2-y2    tot
    1  0.000  0.000  0.000  0.000  0.079  0.602  0.006  0.246  0.039  0.972
 
band     5 # energy    5.31161278 # occ.  2.00000000
 
ion      s     py     pz     px    dxy    dyz    dz2    dxz  x2-y2    tot
    1  0.000  0.000  0.000  0.000  0.008  0.031  0.232  0.008  0.711  0.988
 
band     6 # energy    5.31161781 # occ.  2.00000000
 
ion      s     py     pz     px    dxy    dyz    dz2    dxz  x2-y2    tot
    1  0.000  0.000  0.000  0.000  0.023  0.000  0.711  0.023  0.232  0.988
 
band     7 # energy   25.46841116 # occ.  0.00000000
 
ion      s     py     pz     px    dxy    dyz    dz2    dxz  x2-y2    tot
    1  0.038  0.088  0.088  0.088  0.081  0.081  0.000  0.081  0.000  0.544
 
band     8 # energy   30.75663396 # occ.  0.00000000
 
ion      s     py     pz     px    dxy    dyz    dz2    dxz  x2-y2    tot
    1  0.030  0.022  0.022  0.022  0.009  0.009  0.000  0.009  0.000  0.123
 
band     9 # energy   31.41649493 # occ.  0.00000000
 
ion      s     py     pz     px    dxy    dyz    dz2    dxz  x2-y2    tot
    1  0.000  0.063  0.063  0.252  0.036  0.145  0.004  0.036  0.013  0.614
 
band    10 # energy   31.41651523 # occ.  0.00000000
 
ion      s     py     pz     px    dxy    dyz    dz2    dxz  x2-y2    tot
    1  0.000  0.189  0.189  0.000  0.109  0.000  0.013  0.109  0.004  0.614
 
band    11 # energy   37.20437620 # occ.  0.00000000
 
ion      s     py     pz     px    dxy    dyz    dz2    dxz  x2-y2    tot
    1  0.002  0.046  0.045  0.044  0.029  0.015  0.000  0.022  0.000  0.203
 
band    12 # energy   37.56393512 # occ.  0.00000000
 
ion      s     py     pz     px    dxy    dyz    dz2    dxz  x2-y2    tot
    1  0.000  0.006  0.001  0.002  0.040  0.082  0.015  0.229  0.074  0.449
 

 k-point     5 :    0.19047619 0.00000000 0.00000000     weight = 0.00086384

band     1 # energy   -0.47475690 # occ.  2.00000000
 
ion      s     py     pz     px    dxy    dyz    dz2    dxz  x2-y2    tot
    1  0.519  0.021  0.021  0.021  0.004  0.004  0.000  0.004  0.000  0.592
 
band     2 # energy    4.34293839 # occ.  2.00000000
 
ion      s     py     pz     px    dxy    dyz    dz2    dxz  x2-y2    tot
    1  0.002  0.003  0.003  0.003  0.311  0.311  0.000  0.311  0.000  0.946
 
band     3 # energy    4.68213141 # occ.  2.00000000
 
ion      s     py     pz     px    dxy    dyz    dz2    dxz  x2-y2    tot
    1  0.000  0.000  0.000  0.000  0.415  0.000  0.102  0.419  0.035  0.972
 
band     4 # energy    4.68213448 # occ.  2.00000000
 
ion      s     py     pz     px    dxy    dyz    dz2    dxz  x2-y2    tot
    1  0.000  0.000  0.000  0.001  0.141  0.556  0.035  0.137  0.102  0.972
 
band     5 # energy    5.32930570 # occ.  2.00000000
 
ion      s     py     pz     px    dxy    dyz    dz2    dxz  x2-y2    tot
    1  0.000  0.000  0.000  0.000  0.023  0.093  0.212  0.023  0.636  0.987
 
band     6 # energy    5.32931477 # occ.  2.00000000
 
ion      s     py     pz     px    dxy    dyz    dz2    dxz  x2-y2    tot
    1  0.000  0.000  0.000  0.000  0.070  0.000  0.636  0.070  0.212  0.987
 
band     7 # energy   23.00244690 # occ.  0.00000000
 
ion      s     py     pz     px    dxy    dyz    dz2    dxz  x2-y2    tot
    1  0.066  0.097  0.097  0.097  0.078  0.078  0.000  0.078  0.000  0.590
 
band     8 # energy   30.50833614 # occ.  0.00000000
 
ion      s     py     pz     px    dxy    dyz    dz2    dxz  x2-y2    tot
    1  0.033  0.007  0.007  0.007  0.018  0.018  0.000  0.018  0.000  0.108
 
band     9 # energy   30.91056313 # occ.  0.00000000
 
ion      s     py     pz     px    dxy    dyz    dz2    dxz  x2-y2    tot
    1  0.000  0.065  0.065  0.261  0.038  0.153  0.006  0.038  0.018  0.644
 
band    10 # energy   30.91057623 # occ.  0.00000000
 
ion      s     py     pz     px    dxy    dyz    dz2    dxz  x2-y2    tot
    1  0.000  0.196  0.196  0.000  0.115  0.000  0.018  0.115  0.006  0.644
 
band    11 # energy   37.16477800 # occ.  0.00000000
 
ion      s     py     pz     px    dxy    dyz    dz2    dxz  x2-y2    tot
    1  0.006  0.064  0.068  0.077  0.001  0.000  0.000  0.001  0.002  0.219
 
band    12 # energy   37.46017302 # occ.  0.00000000
 
ion      s     py     pz     px    dxy    dyz    dz2    dxz  x2-y2    tot
    1  0.000  0.017  0.036  0.015  0.017  0.007  0.257  0.008  0.068  0.427
 

 k-point     6 :    0.23809524 0.00000000 0.00000000     weight = 0.00086384

band     1 # energy    0.18987593 # occ.  2.00000000
 
ion      s     py     pz     px    dxy    dyz    dz2    dxz  x2-y2    tot
    1  0.478  0.029  0.029  0.029  0.011  0.011  0.000  0.011  0.000  0.600
 
band     2 # energy    4.29559146 # occ.  2.00000000
 
ion      s     py     pz     px    dxy    dyz    dz2    dxz  x2-y2    tot
    1  0.006  0.008  0.008  0.008  0.299  0.299  0.000  0.299  0.000  0.928
 
band     3 # energy    4.68457740 # occ.  2.00000000
 
ion      s     py     pz     px    dxy    dyz    dz2    dxz  x2-y2    tot
    1  0.000  0.000  0.000  0.000  0.348  0.000  0.205  0.349  0.069  0.972
 
band     4 # energy    4.68458229 # occ.  2.00000000
 
ion      s     py     pz     px    dxy    dyz    dz2    dxz  x2-y2    tot
    1  0.000  0.000  0.000  0.001  0.116  0.464  0.069  0.116  0.205  0.972
 
band     5 # energy    5.39666231 # occ.  2.00000000
 
ion      s     py     pz     px    dxy    dyz    dz2    dxz  x2-y2    tot
    1  0.000  0.000  0.000  0.001  0.046  0.186  0.177  0.047  0.532  0.988
 
band     6 # energy    5.39667474 # occ.  2.00000000
 
ion      s     py     pz     px    dxy    dyz    dz2    dxz  x2-y2    tot
    1  0.000  0.000  0.000  0.000  0.139  0.000  0.532  0.139  0.177  0.988
 
band     7 # energy   20.60656960 # occ.  0.00000000
 
ion      s     py     pz     px    dxy    dyz    dz2    dxz  x2-y2    tot
    1  0.100  0.099  0.099  0.099  0.075  0.075  0.000  0.075  0.000  0.622
 
band     8 # energy   30.17875743 # occ.  0.00000000
 
ion      s     py     pz     px    dxy    dyz    dz2    dxz  x2-y2    tot
    1  0.030  0.001  0.001  0.001  0.020  0.020  0.000  0.020  0.000  0.093
 
band     9 # energy   30.49495439 # occ.  0.00000000
 
ion      s     py     pz     px    dxy    dyz    dz2    dxz  x2-y2    tot
    1  0.000  0.069  0.070  0.278  0.037  0.145  0.007  0.036  0.021  0.663
 
band    10 # energy   30.49495808 # occ.  0.00000000
 
ion      s     py     pz     px    dxy    dyz    dz2    dxz  x2-y2    tot
    1  0.000  0.209  0.208  0.000  0.109  0.000  0.021  0.109  0.007  0.663
 
band    11 # energy   36.37805868 # occ.  0.00000000
 
ion      s     py     pz     px    dxy    dyz    dz2    dxz  x2-y2    tot
    1  0.000  0.062  0.063  0.010  0.001  0.000  0.267  0.001  0.115  0.520
 
band    12 # energy   36.37806872 # occ.  0.00000000
 
ion      s     py     pz     px    dxy    dyz    dz2    dxz  x2-y2    tot
    1  0.000  0.027  0.027  0.081  0.001  0.002  0.115  0.001  0.267  0.520
 

 k-point     7 :    0.28571429 0.00000000 0.00000000     weight = 0.00086384

band     1 # energy    0.92056785 # occ.  2.00000000
 
ion      s     py     pz     px    dxy    dyz    dz2    dxz  x2-y2    tot
    1  0.423  0.035  0.035  0.035  0.031  0.031  0.000  0.031  0.000  0.621
 
band     2 # energy    4.33642785 # occ.  2.00000000
 
ion      s     py     pz     px    dxy    dyz    dz2    dxz  x2-y2    tot
    1  0.018  0.019  0.019  0.019  0.273  0.273  0.000  0.273  0.000  0.895
 
band     3 # energy    4.65729714 # occ.  2.00000000
 
ion      s     py     pz     px    dxy    dyz    dz2    dxz  x2-y2    tot
    1  0.000  0.000  0.000  0.000  0.281  0.000  0.304  0.282  0.102  0.970
 
band     4 # energy    4.65730263 # occ.  2.00000000
 
ion      s     py     pz     px    dxy    dyz    dz2    dxz  x2-y2    tot
    1  0.000  0.000  0.000  0.000  0.094  0.375  0.102  0.093  0.304  0.970
 
band     5 # energy    5.52338717 # occ.  2.00000000
 
ion      s     py     pz     px    dxy    dyz    dz2    dxz  x2-y2    tot
    1  0.000  0.000  0.000  0.001  0.069  0.277  0.144  0.069  0.430  0.991
 
band     6 # energy    5.52340231 # occ.  2.00000000
 
ion      s     py     pz     px    dxy    dyz    dz2    dxz  x2-y2    tot
    1  0.000  0.001  0.001  0.000  0.208  0.000  0.430  0.208  0.144  0.991
 
band     7 # energy   18.32263545 # occ.  0.00000000
 
ion      s     py     pz     px    dxy    dyz    dz2    dxz  x2-y2    tot
    1  0.141  0.095  0.095  0.095  0.074  0.074  0.000  0.074  0.000  0.649
 
band     8 # energy   29.79634878 # occ.  0.00000000
 
ion      s     py     pz     px    dxy    dyz    dz2    dxz  x2-y2    tot
    1  0.022  0.000  0.000  0.000  0.017  0.017  0.000  0.017  0.000  0.075
 
band     9 # energy   30.17237848 # occ.  0.00000000
 
ion      s     py     pz     px    dxy    dyz    dz2    dxz  x2-y2    tot
    1  0.000  0.227  0.227  0.000  0.095  0.000  0.022  0.095  0.007  0.671
 
band    10 # energy   30.17238657 # occ.  0.00000000
 
ion      s     py     pz     px    dxy    dyz    dz2    dxz  x2-y2    tot
    1  0.000  0.076  0.075  0.302  0.032  0.126  0.007  0.032  0.022  0.671
 
band    11 # energy   35.26487642 # occ.  0.00000000
 
ion      s     py     pz     px    dxy    dyz    dz2    dxz  x2-y2    tot
    1  0.000  0.022  0.024  0.091  0.005  0.021  0.103  0.005  0.292  0.563
 
band    12 # energy   35.26490851 # occ.  0.00000000
 
ion      s     py     pz     px    dxy    dyz    dz2    dxz  x2-y2    tot
    1  0.000  0.069  0.068  0.000  0.015  0.000  0.292  0.016  0.103  0.563
 

 k-point     8 :    0.33333333 0.00000000 0.00000000     weight = 0.00086384

band     1 # energy    1.60741770 # occ.  2.00000000
 
ion      s     py     pz     px    dxy    dyz    dz2    dxz  x2-y2    tot
    1  0.344  0.032  0.032  0.032  0.076  0.076  0.000  0.076  0.000  0.668
 
band     2 # energy    4.53204831 # occ.  2.00000000
 
ion      s     py     pz     px    dxy    dyz    dz2    dxz  x2-y2    tot
    1  0.045  0.043  0.043  0.043  0.218  0.218  0.000  0.218  0.000  0.827
 
band     3 # energy    4.58907404 # occ.  2.00000000
 
ion      s     py     pz     px    dxy    dyz    dz2    dxz  x2-y2    tot
    1  0.000  0.000  0.000  0.000  0.245  0.000  0.357  0.245  0.119  0.967
 
band     4 # energy    4.58907914 # occ.  2.00000000
 
ion      s     py     pz     px    dxy    dyz    dz2    dxz  x2-y2    tot
    1  0.000  0.000  0.000  0.000  0.082  0.327  0.119  0.081  0.357  0.967
 
band     5 # energy    5.62801447 # occ.  2.00000000
 
ion      s     py     pz     px    dxy    dyz    dz2    dxz  x2-y2    tot
    1  0.000  0.000  0.000  0.001  0.082  0.326  0.126  0.081  0.376  0.992
 
band     6 # energy    5.62803068 # occ.  2.00000000
 
ion      s     py     pz     px    dxy    dyz    dz2    dxz  x2-y2    tot
    1  0.000  0.000  0.000  0.000  0.244  0.000  0.376  0.245  0.126  0.992
 
band     7 # energy   16.18136723 # occ.  0.00000000
 
ion      s     py     pz     px    dxy    dyz    dz2    dxz  x2-y2    tot
    1  0.191  0.086  0.086  0.086  0.076  0.076  0.000  0.076  0.000  0.676
 
band     8 # energy   29.41197330 # occ.  0.00000000
 
ion      s     py     pz     px    dxy    dyz    dz2    dxz  x2-y2    tot
    1  0.014  0.003  0.003  0.003  0.012  0.012  0.000  0.012  0.000  0.058
 
band     9 # energy   29.93856744 # occ.  0.00000000
 
ion      s     py     pz     px    dxy    dyz    dz2    dxz  x2-y2    tot
    1  0.000  0.250  0.250  0.000  0.073  0.000  0.019  0.073  0.006  0.672
 
band    10 # energy   29.93858968 # occ.  0.00000000
 
ion      s     py     pz     px    dxy    dyz    dz2    dxz  x2-y2    tot
    1  0.000  0.083  0.083  0.333  0.024  0.097  0.006  0.024  0.019  0.672
 
band    11 # energy   34.29529772 # occ.  0.00000000
 
ion      s     py     pz     px    dxy    dyz    dz2    dxz  x2-y2    tot
    1  0.000  0.021  0.017  0.076  0.011  0.049  0.092  0.013  0.310  0.590
 
band    12 # energy   34.29534580 # occ.  0.00000000
 
ion      s     py     pz     px    dxy    dyz    dz2    dxz  x2-y2    tot
    1  0.000  0.055  0.059  0.000  0.038  0.000  0.310  0.036  0.092  0.590
 

 k-point     9 :    0.38095238 0.00000000 0.00000000     weight = 0.00086384

band     1 # energy    2.11605876 # occ.  2.00000000
 
ion      s     py     pz     px    dxy    dyz    dz2    dxz  x2-y2    tot
    1  0.250  0.019  0.019  0.019  0.145  0.145  0.000  0.145  0.000  0.742
 
band     2 # energy    4.56960053 # occ.  2.00000000
 
ion      s     py     pz     px    dxy    dyz    dz2    dxz  x2-y2    tot
    1  0.000  0.000  0.000  0.000  0.223  0.000  0.391  0.223  0.130  0.968
 
band     3 # energy    4.56960544 # occ.  2.00000000
 
ion      s     py     pz     px    dxy    dyz    dz2    dxz  x2-y2    tot
    1  0.000  0.000  0.000  0.000  0.074  0.298  0.130  0.075  0.391  0.968
 
band     4 # energy    5.04260987 # occ.  2.00000000
 
ion      s     py     pz     px    dxy    dyz    dz2    dxz  x2-y2    tot
    1  0.075  0.082  0.082  0.082  0.136  0.136  0.000  0.136  0.000  0.729
 
band     5 # energy    5.75620219 # occ.  2.00000000
 
ion      s     py     pz     px    dxy    dyz    dz2    dxz  x2-y2    tot
    1  0.000  0.000  0.000  0.000  0.089  0.357  0.115  0.089  0.344  0.995
 
band     6 # energy    5.75621960 # occ.  2.00000000
 
ion      s     py     pz     px    dxy    dyz    dz2    dxz  x2-y2    tot
    1  0.000  0.000  0.000  0.000  0.268  0.000  0.344  0.268  0.115  0.995
 
band     7 # energy   14.22959082 # occ.  0.00000000
 
ion      s     py     pz     px    dxy    dyz    dz2    dxz  x2-y2    tot
    1  0.252  0.068  0.068  0.068  0.084  0.084  0.000  0.084  0.000  0.708
 
band     8 # energy   29.08512485 # occ.  0.00000000
 
ion      s     py     pz     px    dxy    dyz    dz2    dxz  x2-y2    tot
    1  0.007  0.006  0.006  0.006  0.007  0.007  0.000  0.007  0.000  0.044
 
band     9 # energy   29.78694008 # occ.  0.00000000
 
ion      s     py     pz     px    dxy    dyz    dz2    dxz  x2-y2    tot
    1  0.000  0.278  0.278  0.000  0.046  0.000  0.014  0.046  0.005  0.666
 
band    10 # energy   29.78697818 # occ.  0.00000000
 
ion      s     py     pz     px    dxy    dyz    dz2    dxz  x2-y2    tot
    1  0.000  0.093  0.093  0.370  0.015  0.062  0.005  0.015  0.014  0.666
 
band    11 # energy   33.52846360 # occ.  0.00000000
 
ion      s     py     pz     px    dxy    dyz    dz2    dxz  x2-y2    tot
    1  0.000  0.013  0.012  0.051  0.020  0.083  0.097  0.022  0.310  0.608
 
band    12 # energy   33.52852653 # occ.  0.00000000
 
ion      s     py     pz     px    dxy    dyz    dz2    dxz  x2-y2    tot
    1  0.000  0.038  0.039  0.000  0.064  0.000  0.310  0.061  0.097  0.608
 

 k-point    10 :    0.42857143 0.00000000 0.00000000     weight = 0.00086384

band     1 # energy    2.38114382 # occ.  2.00000000
 
ion      s     py     pz     px    dxy    dyz    dz2    dxz  x2-y2    tot
    1  0.178  0.007  0.007  0.007  0.202  0.202  0.000  0.202  0.000  0.804
 
band     2 # energy    4.52115268 # occ.  2.00000000
 
ion      s     py     pz     px    dxy    dyz    dz2    dxz  x2-y2    tot
    1  0.000  0.000  0.000  0.000  0.204  0.000  0.418  0.204  0.140  0.966
 
band     3 # energy    4.52115715 # occ.  2.00000000
 
ion      s     py     pz     px    dxy    dyz    dz2    dxz  x2-y2    tot
    1  0.000  0.000  0.000  0.000  0.068  0.272  0.140  0.068  0.418  0.966
 
band     4 # energy    5.80503536 # occ.  2.00000000
 
ion      s     py     pz     px    dxy    dyz    dz2    dxz  x2-y2    tot
    1  0.066  0.127  0.127  0.127  0.059  0.059  0.000  0.059  0.000  0.626
 
band     5 # energy    5.83260624 # occ.  2.00000000
 
ion      s     py     pz     px    dxy    dyz    dz2    dxz  x2-y2    tot
    1  0.000  0.000  0.000  0.000  0.096  0.384  0.105  0.096  0.315  0.996
 
band     6 # energy    5.83262448 # occ.  2.00000000
 
ion      s     py     pz     px    dxy    dyz    dz2    dxz  x2-y2    tot
    1  0.000  0.000  0.000  0.000  0.288  0.000  0.315  0.288  0.105  0.996
 
band     7 # energy   12.56624997 # occ.  0.00000000
 
ion      s     py     pz     px    dxy    dyz    dz2    dxz  x2-y2    tot
    1  0.330  0.041  0.041  0.041  0.100  0.100  0.000  0.100  0.000  0.752
 
band     8 # energy   28.84433795 # occ.  0.00000000
 
ion      s     py     pz     px    dxy    dyz    dz2    dxz  x2-y2    tot
    1  0.003  0.008  0.008  0.008  0.002  0.002  0.000  0.002  0.000  0.033
 
band     9 # energy   29.70282404 # occ.  0.00000000
 
ion      s     py     pz     px    dxy    dyz    dz2    dxz  x2-y2    tot
    1  0.000  0.303  0.306  0.000  0.020  0.000  0.006  0.020  0.002  0.657
 
band    10 # energy   29.70287722 # occ.  0.00000000
 
ion      s     py     pz     px    dxy    dyz    dz2    dxz  x2-y2    tot
    1  0.000  0.103  0.100  0.406  0.007  0.026  0.002  0.007  0.006  0.657
 
band    11 # energy   32.98288418 # occ.  0.00000000
 
ion      s     py     pz     px    dxy    dyz    dz2    dxz  x2-y2    tot
    1  0.000  0.005  0.006  0.023  0.030  0.117  0.108  0.028  0.309  0.627
 
band    12 # energy   32.98296176 # occ.  0.00000000
 
ion      s     py     pz     px    dxy    dyz    dz2    dxz  x2-y2    tot
    1  0.000  0.017  0.017  0.000  0.087  0.000  0.309  0.089  0.108  0.627
 

 k-point    11 :    0.47619048 0.00000000 0.00000000     weight = 0.00086384

band     1 # energy    2.48175403 # occ.  2.00000000
 
ion      s     py     pz     px    dxy    dyz    dz2    dxz  x2-y2    tot
    1  0.147  0.001  0.001  0.001  0.228  0.228  0.000  0.228  0.000  0.833
 
band     2 # energy    4.49941248 # occ.  2.00000000
 
ion      s     py     pz     px    dxy    dyz    dz2    dxz  x2-y2    tot
    1  0.000  0.000  0.000  0.000  0.197  0.000  0.428  0.197  0.143  0.965
 
band     3 # energy    4.49941678 # occ.  2.00000000
 
ion      s     py     pz     px    dxy    dyz    dz2    dxz  x2-y2    tot
    1  0.000  0.000  0.000  0.000  0.066  0.263  0.143  0.066  0.428  0.965
 
band     4 # energy    5.87993453 # occ.  2.00000000
 
ion      s     py     pz     px    dxy    dyz    dz2    dxz  x2-y2    tot
    1  0.000  0.000  0.000  0.000  0.099  0.394  0.101  0.099  0.304  0.997
 
band     5 # energy    5.87995313 # occ.  2.00000000
 
ion      s     py     pz     px    dxy    dyz    dz2    dxz  x2-y2    tot
    1  0.000  0.000  0.000  0.000  0.296  0.000  0.304  0.296  0.101  0.997
 
band     6 # energy    6.48255293 # occ.  2.00000000
 
ion      s     py     pz     px    dxy    dyz    dz2    dxz  x2-y2    tot
    1  0.014  0.170  0.170  0.170  0.008  0.008  0.000  0.008  0.000  0.549
 
band     7 # energy   11.47013549 # occ.  0.00000000
 
ion      s     py     pz     px    dxy    dyz    dz2    dxz  x2-y2    tot
    1  0.414  0.007  0.007  0.007  0.123  0.123  0.000  0.123  0.000  0.803
 
band     8 # energy   28.71870182 # occ.  0.00000000
 
ion      s     py     pz     px    dxy    dyz    dz2    dxz  x2-y2    tot
    1  0.000  0.009  0.009  0.009  0.000  0.000  0.000  0.000  0.000  0.028
 
band     9 # energy   29.66821571 # occ.  0.00000000
 
ion      s     py     pz     px    dxy    dyz    dz2    dxz  x2-y2    tot
    1  0.000  0.322  0.322  0.000  0.002  0.000  0.001  0.002  0.000  0.650
 
band    10 # energy   29.66827871 # occ.  0.00000000
 
ion      s     py     pz     px    dxy    dyz    dz2    dxz  x2-y2    tot
    1  0.000  0.107  0.107  0.429  0.001  0.003  0.000  0.001  0.001  0.650
 
band    11 # energy   32.69975086 # occ.  0.00000000
 
ion      s     py     pz     px    dxy    dyz    dz2    dxz  x2-y2    tot
    1  0.000  0.001  0.001  0.003  0.035  0.139  0.106  0.035  0.319  0.638
 
band    12 # energy   32.69983799 # occ.  0.00000000
 
ion      s     py     pz     px    dxy    dyz    dz2    dxz  x2-y2    tot
    1  0.000  0.002  0.002  0.000  0.105  0.000  0.319  0.104  0.106  0.638
 

 k-point    12 :    0.04761905 0.04761905 0.00000000     weight = 0.00064788

band     1 # energy   -1.64390724 # occ.  2.00000000
 
ion      s     py     pz     px    dxy    dyz    dz2    dxz  x2-y2    tot
    1  0.580  0.000  0.006  0.000  0.000  0.000  0.000  0.000  0.000  0.586
 
band     2 # energy    4.48846380 # occ.  2.00000000
 
ion      s     py     pz     px    dxy    dyz    dz2    dxz  x2-y2    tot
    1  0.000  0.000  0.000  0.000  0.968  0.000  0.000  0.000  0.000  0.968
 
band     3 # energy    4.54648439 # occ.  2.00000000
 
ion      s     py     pz     px    dxy    dyz    dz2    dxz  x2-y2    tot
    1  0.000  0.000  0.000  0.000  0.000  0.485  0.000  0.485  0.000  0.970
 
band     4 # energy    4.54648607 # occ.  2.00000000
 
ion      s     py     pz     px    dxy    dyz    dz2    dxz  x2-y2    tot
    1  0.000  0.000  0.000  0.000  0.000  0.485  0.000  0.485  0.000  0.970
 
band     5 # energy    5.28078292 # occ.  2.00000000
 
ion      s     py     pz     px    dxy    dyz    dz2    dxz  x2-y2    tot
    1  0.000  0.000  0.000  0.000  0.000  0.000  0.988  0.000  0.000  0.988
 
band     6 # energy    5.32051376 # occ.  2.00000000
 
ion      s     py     pz     px    dxy    dyz    dz2    dxz  x2-y2    tot
    1  0.000  0.000  0.000  0.000  0.000  0.000  0.000  0.000  0.989  0.989
 
band     7 # energy   29.83985852 # occ.  0.00000000
 
ion      s     py     pz     px    dxy    dyz    dz2    dxz  x2-y2    tot
    1  0.000  0.000  0.000  0.000  0.089  0.000  0.000  0.000  0.000  0.089
 
band     8 # energy   31.72226806 # occ.  0.00000000
 
ion      s     py     pz     px    dxy    dyz    dz2    dxz  x2-y2    tot