nqpoint: 153    
npath: 3      
segment_nqpoint:
- 51
- 51
- 51
labels:
- [ '$\Gamma$', 'X,' ]
- [ 'X', '$\Gamma$,' ]
- [ '$\Gamma$', 'L' ]
reciprocal_lattice:
- [  -0.18294249,   0.18294249,   0.18294249 ] # a*
- [   0.18294249,  -0.18294249,   0.18294249 ] # b*
- [   0.18294249,   0.18294249,  -0.18294249 ] # c*
natom: 2      
lattice:
- [     0.000000000000000,     2.733099421887393,     2.733099421887393 ] # a
- [     2.733099421887393,     0.000000000000000,     2.733099421887393 ] # b
- [     2.733099421887393,     2.733099421887393,     0.000000000000000 ] # c
points:
- symbol: Si # 1
  coordinates: [  0.875000000000000,  0.875000000000000,  0.875000000000000 ]
  mass: 28.085500
- symbol: Si # 2
  coordinates: [  0.125000000000000,  0.125000000000000,  0.125000000000000 ]
  mass: 28.085500

phonon:
- q-position: [    0.0000000,    0.0000000,    0.0000000 ]
  distance:    0.0000000
  band:
  - # 1
    frequency:   -0.0000000900
    eigenvector:
    - # atom 1
      - [ -0.15436671119361,  0.00000000000000 ]
      - [  0.38229595106728,  0.00000000000000 ]
      - [  0.57447430253479,  0.00000000000000 ]
    - # atom 2
      - [ -0.15436671119361,  0.00000000000000 ]
      - [  0.38229595106728,  0.00000000000000 ]
      - [  0.57447430253479,  0.00000000000000 ]
  - # 2
    frequency:    0.0000001422
    eigenvector:
    - # atom 1
      - [ -0.44375660166964,  0.00000000000000 ]
      - [  0.39580990262947,  0.00000000000000 ]
      - [ -0.38264160706209,  0.00000000000000 ]
    - # atom 2
      - [ -0.44375660166964,  0.00000000000000 ]
      - [  0.39580990262947,  0.00000000000000 ]
      - [ -0.38264160706209,  0.00000000000000 ]
  - # 3
    frequency:    0.0000002879
    eigenvector:
    - # atom 1
      - [  0.52844204691704,  0.00000000000000 ]
      - [  0.44405441871240,  0.00000000000000 ]
      - [ -0.15350790296306,  0.00000000000000 ]
    - # atom 2
      - [  0.52844204691704,  0.00000000000000 ]
      - [  0.44405441871240,  0.00000000000000 ]
      - [ -0.15350790296306,  0.00000000000000 ]
  - # 4
    frequency:   15.0931240459
    eigenvector:
    - # atom 1
      - [ -0.00000000000000,  0.00000000000000 ]
      - [ -0.50000000000000,  0.00000000000000 ]
      - [  0.50000000000000,  0.00000000000000 ]
    - # atom 2
      - [ -0.00000000000000,  0.00000000000000 ]
      - [  0.50000000000000,  0.00000000000000 ]
      - [ -0.50000000000000,  0.00000000000000 ]
  - # 5
    frequency:   15.0931240459
    eigenvector:
    - # atom 1
      - [  0.70710678118655,  0.00000000000000 ]
      - [  0.00000000000000,  0.00000000000000 ]
      - [  0.00000000000000,  0.00000000000000 ]
    - # atom 2
      - [ -0.70710678118655,  0.00000000000000 ]
      - [  0.00000000000000,  0.00000000000000 ]
      - [  0.00000000000000,  0.00000000000000 ]
  - # 6
    frequency:   15.0931240459
    eigenvector:
    - # atom 1
      - [ -0.00000000000000,  0.00000000000000 ]
      - [  0.50000000000000,  0.00000000000000 ]
      - [  0.50000000000000,  0.00000000000000 ]
    - # atom 2
      - [  0.00000000000000,  0.00000000000000 ]
      - [ -0.50000000000000,  0.00000000000000 ]
      - [ -0.50000000000000,  0.00000000000000 ]

- q-position: [    0.0100000,    0.0100000,    0.0000000 ]
  distance:    0.0036588
  band:
  - # 1
    frequency:    0.2897245065
    eigenvector:
    - # atom 1
      - [  0.00000000000000,  0.00000000000000 ]
      - [ -0.00000000000001, -0.00000000000007 ]
      - [ -0.00000001974219,  0.70710678118655 ]
    - # atom 2
      - [ -0.00000000000000,  0.00000000000000 ]
      - [ -0.00000000000001, -0.00000000000007 ]
      - [ -0.00000001974219,  0.70710678118655 ]
  - # 2
    frequency:    0.1232712273
    eigenvector:
    - # atom 1
      - [ -0.70682574773601,  0.00000000000000 ]
      - [ -0.01993387835257, -0.00005320955027 ]
      - [ -0.00000000000000, -0.00000000000000 ]
    - # atom 2
      - [ -0.70667875181796,  0.00040802190921 ]
      - [ -0.01992970206242,  0.01441465305970 ]
      - [ -0.00000000000000, -0.00000000000000 ]
  - # 3
    frequency:    0.1232712273
    eigenvector:
    - # atom 1
      - [  0.01993394936863, -0.00000000000000 ]
      - [ -0.70682322962070, -0.00188672497647 ]
      - [ -0.00000000000007, -0.00000000000001 ]
    - # atom 2
      - [  0.01989115412987,  0.01446779991947 ]
      - [ -0.70667514509633, -0.00229435305690 ]
      - [ -0.00000000000007, -0.00000000000001 ]
  - # 4
    frequency:   15.0925571095
    eigenvector:
    - # atom 1
      - [ -0.00000000000000,  0.00000000000000 ]
      - [  0.00000000000001,  0.00000000000140 ]
      - [ -0.00000039935265, -0.70710678118643 ]
    - # atom 2
      - [ -0.00000000000003,  0.00000000000000 ]
      - [ -0.00000000000001, -0.00000000000140 ]
      - [  0.00000039935265,  0.70710678118643 ]
  - # 5
    frequency:   15.0918604110
    eigenvector:
    - # atom 1
      - [ -0.70710678118655,  0.00000000000000 ]
      - [  0.00000000000000, -0.00000000000000 ]
      - [ -0.00000000000000,  0.00000000000000 ]
    - # atom 2
      - [  0.70695863725610, -0.00000000000000 ]
      - [ -0.00000000000000, -0.01447360387037 ]
      - [ -0.00000000000000, -0.00000000000000 ]
  - # 6
    frequency:   15.0918604110
    eigenvector:
    - # atom 1
      - [  0.00000000000000,  0.00000000000000 ]
      - [  0.70710426207003, -0.00188747513707 ]
      - [  0.00000000000140,  0.00000000000001 ]
    - # atom 2
      - [  0.00003863428859,  0.01447355230716 ]
      - [ -0.70695611866736,  0.00188707969752 ]
      - [ -0.00000000000140, -0.00000000000001 ]

- q-position: [    0.0200000,    0.0200000,    0.0000000 ]
  distance:    0.0073177
  band:
  - # 1
    frequency:    0.5793060365
    eigenvector:
    - # atom 1
      - [ -0.00000000000000,  0.00000000000000 ]
      - [ -0.00000000000000,  0.00000000000002 ]
      - [ -0.00000000088138,  0.70710678118655 ]
    - # atom 2
      - [  0.00000000000000,  0.00000000000000 ]
      - [ -0.00000000000000,  0.00000000000003 ]
      - [ -0.00000000088138,  0.70710678118655 ]
  - # 2
    frequency:    0.2464679266
    eigenvector:
    - # atom 1
      - [  0.70180758656068,  0.00000000000000 ]
      - [  0.08640310095560, -0.00078459615504 ]
      - [ -0.00000000000000,  0.00000000000000 ]
    - # atom 2
      - [  0.70118660731062, -0.00353870902253 ]
      - [  0.08633060519420, -0.02952703631377 ]
      - [ -0.00000000000000,  0.00000000000000 ]
  - # 3
    frequency:    0.2464679266
    eigenvector:
    - # atom 1
      - [  0.08640666320296,  0.00000000000000 ]
      - [ -0.70177865346535,  0.00637260500038 ]
      - [  0.00000000000002, -0.00000000000000 ]
    - # atom 2
      - [  0.08659515965497,  0.02874191348886 ]
      - [ -0.70118983226273,  0.00282840320499 ]
      - [  0.00000000000002, -0.00000000000000 ]
  - # 4
    frequency:   15.0908506487
    eigenvector:
    - # atom 1
      - [  0.00000000000000,  0.00000000000000 ]
      - [  0.00000000000001, -0.00000000000001 ]
      - [ -0.00000000042569, -0.70710678118655 ]
    - # atom 2
      - [  0.00000000000000,  0.00000000000000 ]
      - [ -0.00000000000001,  0.00000000000001 ]
      - [  0.00000000042569,  0.70710678118655 ]
  - # 5
    frequency:   15.0880708149
    eigenvector:
    - # atom 1
      - [ -0.69816399874688,  0.00000000000000 ]
      - [  0.11209814755310,  0.00101792383126 ]
      - [ -0.00000000000000,  0.00000000000000 ]
    - # atom 2
      - [  0.69753652049304,  0.00459107047974 ]
      - [ -0.11200409258901, -0.02961094212670 ]
      - [  0.00000000000000, -0.00000000000000 ]
  - # 6
    frequency:   15.0880708149
    eigenvector:
    - # atom 1
      - [ -0.11210276916189, -0.00000000000000 ]
      - [ -0.69813521586405, -0.00633952022563 ]
      - [  0.00000000000001, -0.00000000000001 ]
    - # atom 2
      - [  0.11226835050859, -0.02859269354918 ]
      - [  0.69754945165569,  0.00174294134551 ]
      - [ -0.00000000000001,  0.00000000000001 ]

- q-position: [    0.0300000,    0.0300000,    0.0000000 ]
  distance:    0.0109765
  band:
  - # 1
    frequency:    0.8686019275
    eigenvector:
    - # atom 1
      - [  0.00000000000000,  0.00000000000000 ]
      - [  0.00000000000002,  0.00000000000000 ]
      - [ -0.70120690549585,  0.09115303442525 ]
    - # atom 2
      - [  0.00000000000000, -0.00000000000000 ]
      - [  0.00000000000002,  0.00000000000000 ]
      - [ -0.70120690549585,  0.09115303442525 ]
  - # 2
    frequency:    0.3695157355
    eigenvector:
    - # atom 1
      - [  0.70396580177408,  0.00000000000000 ]
      - [ -0.06644474556348, -0.00415279659772 ]
      - [ -0.00000000000000,  0.00000000000000 ]
    - # atom 2
      - [  0.70237883848957,  0.00408497848729 ]
      - [ -0.06631905581169, -0.04742428733303 ]
      - [ -0.00000000000000,  0.00000000000000 ]
  - # 3
    frequency:    0.3695157355
    eigenvector:
    - # atom 1
      - [ -0.06657439397079,  0.00000000000000 ]
      - [ -0.70259488362439, -0.04391218022652 ]
      - [ -0.00000000000002,  0.00000000000000 ]
    - # atom 2
      - [ -0.06914815042138,  0.04319506321448 ]
      - [ -0.70126582478335, -0.03973616486436 ]
      - [ -0.00000000000002,  0.00000000000000 ]
  - # 4
    frequency:   15.0879877568
    eigenvector:
    - # atom 1
      - [  0.00000000000000,  0.00000000000000 ]
      - [ -0.00000000000022, -0.00000000000001 ]
      - [ -0.70704590253473,  0.00927856178744 ]
    - # atom 2
      - [  0.00000000000000, -0.00000000000001 ]
      - [  0.00000000000022,  0.00000000000001 ]
      - [  0.70704590253473, -0.00927856178744 ]
  - # 5
    frequency:   15.0817592135
    eigenvector:
    - # atom 1
      - [ -0.70710678118655,  0.00000000000000 ]
      - [ -0.00000000000003, -0.00000000000000 ]
      - [  0.00000000000000, -0.00000000000000 ]
    - # atom 2
      - [  0.70576918744512, -0.00000000000000 ]
      - [  0.00000000000003, -0.04347245165689 ]
      - [ -0.00000000000000,  0.00000000000000 ]
  - # 6
    frequency:   15.0817592135
    eigenvector:
    - # atom 1
      - [  0.00000000000003,  0.00000000000000 ]
      - [ -0.70572974622597, -0.04410810913912 ]
      - [  0.00000000000022, -0.00000000000000 ]
    - # atom 2
      - [  0.00271173702929, -0.04338779246913 ]
      - [  0.70439475734337,  0.04402467233396 ]
      - [ -0.00000000000023,  0.00000000000000 ]

- q-position: [    0.0400000,    0.0400000,    0.0000000 ]
  distance:    0.0146354
  band:
  - # 1
    frequency:    1.1574701417
    eigenvector:
    - # atom 1
      - [  0.00000000000000,  0.00000000000000 ]
      - [  0.00000000000000, -0.00000000000000 ]
      - [ -0.00000000000074,  0.70710678118655 ]
    - # atom 2
      - [ -0.00000000000000, -0.00000000000000 ]
      - [  0.00000000000000, -0.00000000000000 ]
      - [ -0.00000000000074,  0.70710678118655 ]
  - # 2
    frequency:    0.4923406142
    eigenvector:
    - # atom 1
      - [ -0.70710678118655,  0.00000000000000 ]
      - [  0.00000000000000,  0.00000000000000 ]
      - [  0.00000000000000,  0.00000000000000 ]
    - # atom 2
      - [ -0.70472213936797,  0.00000000000000 ]
      - [  0.00000000000000,  0.05802332534961 ]
      - [  0.00000000000000,  0.00000000000000 ]
  - # 3
    frequency:    0.4923406142
    eigenvector:
    - # atom 1
      - [  0.00000000000000,  0.00000000000000 ]
      - [  0.05802332534961, -0.70472213936797 ]
      - [ -0.00000000000000, -0.00000000000000 ]
    - # atom 2
      - [ -0.05782764790490, -0.00476124168825 ]
      - [  0.05782764790490, -0.70234553949830 ]
      - [ -0.00000000000000, -0.00000000000000 ]
  - # 4
    frequency:   15.0839404157
    eigenvector:
    - # atom 1
      - [  0.00000000000000,  0.00000000000000 ]
      - [  0.00000000000002, -0.00000000000000 ]
      - [ -0.00000000000506,  0.70710678118655 ]
    - # atom 2
      - [  0.00000000000000,  0.00000000000000 ]
      - [ -0.00000000000002,  0.00000000000000 ]
      - [  0.00000000000506, -0.70710678118655 ]
  - # 5
    frequency:   15.0729323013
    eigenvector:
    - # atom 1
      - [ -0.70710678118655,  0.00000000000000 ]
      - [  0.00000000000000,  0.00000000000000 ]
      - [  0.00000000000000,  0.00000000000000 ]
    - # atom 2
      - [  0.70472213936797, -0.00000000000000 ]
      - [  0.00000000000000, -0.05802332534961 ]
      - [  0.00000000000000, -0.00000000000000 ]
  - # 6
    frequency:   15.0729323013
    eigenvector:
    - # atom 1
      - [  0.00000000000000,  0.00000000000000 ]
      - [  0.05802332534961,  0.70472213936797 ]
      - [  0.00000000000002, -0.00000000000000 ]
    - # atom 2
      - [ -0.05782764790490,  0.00476124168825 ]
      - [ -0.05782764790490, -0.70234553949830 ]
      - [ -0.00000000000002,  0.00000000000000 ]

- q-position: [    0.0500000,    0.0500000,    0.0000000 ]
  distance:    0.0182942
  band:
  - # 1
    frequency:    1.4457695717
    eigenvector:
    - # atom 1
      - [  0.00000000000000,  0.00000000000000 ]
      - [ -0.00000000000000,  0.00000000000001 ]
      - [ -0.00000000005346,  0.70710678118655 ]
    - # atom 2
      - [  0.00000000000000,  0.00000000000000 ]
      - [ -0.00000000000000,  0.00000000000001 ]
      - [ -0.00000000005346,  0.70710678118655 ]
  - # 2
    frequency:    0.6148689890
    eigenvector:
    - # atom 1
      - [  0.51082943992983, -0.00000000000000 ]
      - [  0.48866673199929,  0.01606575046839 ]
      - [ -0.00000000000000,  0.00000000000000 ]
    - # atom 2
      - [  0.50977803398245, -0.05018986076106 ]
      - [  0.48608245477455, -0.03648535467989 ]
      - [ -0.00000000000000,  0.00000000000000 ]
  - # 3
    frequency:    0.6148689890
    eigenvector:
    - # atom 1
      - [ -0.48893075511874,  0.00000000000000 ]
      - [  0.51055359149766,  0.01678531822329 ]
      - [ -0.00000000000000,  0.00000000000000 ]
    - # atom 2
      - [ -0.48462109935238, -0.05243781086445 ]
      - [  0.50785356726413,  0.06691352831321 ]
      - [ -0.00000000000000,  0.00000000000000 ]
  - # 4
    frequency:   15.0786697337
    eigenvector:
    - # atom 1
      - [ -0.00000000000000,  0.00000000000000 ]
      - [ -0.00000000000001,  0.00000000000006 ]
      - [  0.00000000048643, -0.70710678118655 ]
    - # atom 2
      - [ -0.00000000000001, -0.00000000000000 ]
      - [  0.00000000000001, -0.00000000000006 ]
      - [ -0.00000000048643,  0.70710678118655 ]
  - # 5
    frequency:   15.0615996620
    eigenvector:
    - # atom 1
      - [  0.70710678118655,  0.00000000000000 ]
      - [  0.00000000000000, -0.00000000000000 ]
      - [ -0.00000000000000,  0.00000000000000 ]
    - # atom 2
      - [ -0.70336730020612, -0.00000000000000 ]
      - [  0.00000000000000,  0.07262534682023 ]
      - [ -0.00000000000000, -0.00000000000000 ]
  - # 6
    frequency:   15.0615996620
    eigenvector:
    - # atom 1
      - [  0.00000000000000,  0.00000000000000 ]
      - [  0.70622143073353,  0.03537358863163 ]
      - [  0.00000000000006, -0.00000000000001 ]
    - # atom 2
      - [ -0.00363314171353,  0.07253441446684 ]
      - [ -0.70248663186232, -0.03518651807112 ]
      - [ -0.00000000000006,  0.00000000000001 ]

- q-position: [    0.0600000,    0.0600000,    0.0000000 ]
  distance:    0.0219531
  band:
  - # 1
    frequency:    1.7333603383
    eigenvector:
    - # atom 1
      - [  0.00000000000000,  0.00000000000000 ]
      - [ -0.00000000000000, -0.00000000000000 ]
      - [ -0.70502872716299,  0.05417096893111 ]
    - # atom 2
      - [ -0.00000000000000,  0.00000000000000 ]
      - [ -0.00000000000000, -0.00000000000000 ]
      - [ -0.70502872716299,  0.05417096893111 ]
  - # 2
    frequency:    0.7370278717
    eigenvector:
    - # atom 1
      - [  0.65175335737903, -0.00000000000000 ]
      - [  0.27425815365117, -0.00016217588220 ]
      - [ -0.00000000000000,  0.00000000000000 ]
    - # atom 2
      - [  0.64674810704212, -0.03385660783775 ]
      - [  0.27216036623629, -0.08061855365415 ]
      - [ -0.00000000000000,  0.00000000000000 ]
  - # 3
    frequency:    0.7370278717
    eigenvector:
    - # atom 1
      - [  0.27425820160054,  0.00000000000000 ]
      - [ -0.65175324343105,  0.00038539841322 ]
      - [  0.00000000000000, -0.00000000000000 ]
    - # atom 2
      - [  0.27220799046435,  0.08045760418082 ]
      - [ -0.64676801424652, -0.03347416323769 ]
      - [  0.00000000000000, -0.00000000000000 ]
  - # 4
    frequency:   15.0721262726
    eigenvector:
    - # atom 1
      - [ -0.00000000000000,  0.00000000000000 ]
      - [ -0.00000000000004, -0.00000000000000 ]
      - [  0.70694565714704, -0.01509429829250 ]
    - # atom 2
      - [  0.00000000000000, -0.00000000000000 ]
      - [  0.00000000000004,  0.00000000000000 ]
      - [ -0.70694565714704,  0.01509429829250 ]
  - # 5
    frequency:   15.0477739770
    eigenvector:
    - # atom 1
      - [  0.70710678118655,  0.00000000000000 ]
      - [ -0.00000000000001, -0.00000000000000 ]
      - [  0.00000000000000, -0.00000000000000 ]
    - # atom 2
      - [ -0.70169815545636, -0.00000000000000 ]
      - [  0.00000000000001,  0.08729088514356 ]
      - [ -0.00000000000000, -0.00000000000000 ]
  - # 6
    frequency:   15.0477739770
    eigenvector:
    - # atom 1
      - [  0.00000000000001,  0.00000000000000 ]
      - [  0.70710665756097,  0.00041813030706 ]
      - [  0.00000000000004, -0.00000000000000 ]
    - # atom 2
      - [ -0.00005161733077,  0.08729086988223 ]
      - [ -0.70169803277639, -0.00041493204847 ]
      - [ -0.00000000000004,  0.00000000000000 ]

- q-position: [    0.0700000,    0.0700000,    0.0000000 ]
  distance:    0.0256119
  band:
  - # 1
    frequency:    2.0201040766
    eigenvector:
    - # atom 1
      - [ -0.00000000000000,  0.00000000000000 ]
      - [  0.00000000000000, -0.00000000000000 ]
      - [  0.69896544932974, -0.10699205878606 ]
    - # atom 2
      - [ -0.00000000000000, -0.00000000000000 ]
      - [  0.00000000000000, -0.00000000000000 ]
      - [  0.69896544932974, -0.10699205878606 ]
  - # 2
    frequency:    0.8587449512
    eigenvector:
    - # atom 1
      - [ -0.65841141750944, -0.00000000000000 ]
      - [  0.25657225049430, -0.02578925298459 ]
      - [ -0.00000000000000,  0.00000000000000 ]
    - # atom 2
      - [ -0.65524221015223, -0.03702211022684 ]
      - [  0.25388714634274,  0.06948615913345 ]
      - [ -0.00000000000000,  0.00000000000000 ]
  - # 3
    frequency:    0.8587449512
    eigenvector:
    - # atom 1
      - [ -0.25786509126520,  0.00000000000000 ]
      - [ -0.65511038470810,  0.06584814769143 ]
      - [  0.00000000000000, -0.00000000000000 ]
    - # atom 2
      - [ -0.24566489423247,  0.09452919724048 ]
      - [ -0.64825446162866,  0.10236768820949 ]
      - [  0.00000000000000, -0.00000000000000 ]
  - # 4
    frequency:   15.0642504633
    eigenvector:
    - # atom 1
      - [  0.00000000000000,  0.00000000000000 ]
      - [  0.00000000000001,  0.00000000000000 ]
      - [  0.70453267429870, -0.06028026912290 ]
    - # atom 2
      - [ -0.00000000000000,  0.00000000000000 ]
      - [ -0.00000000000001, -0.00000000000000 ]
      - [ -0.70453267429869,  0.06028026912290 ]
  - # 5
    frequency:   15.0314712914
    eigenvector:
    - # atom 1
      - [ -0.70710678118655,  0.00000000000000 ]
      - [  0.00000000000000,  0.00000000000000 ]
      - [  0.00000000000000, -0.00000000000000 ]
    - # atom 2
      - [  0.69970670050713,  0.00000000000000 ]
      - [ -0.00000000000000, -0.10203202078479 ]
      - [  0.00000000000000, -0.00000000000000 ]
  - # 6
    frequency:   15.0314712914
    eigenvector:
    - # atom 1
      - [  0.00000000000000,  0.00000000000000 ]
      - [ -0.70356160773319, -0.07071820221057 ]
      - [  0.00000000000001, -0.00000000000000 ]
    - # atom 2
      - [  0.01020428776783, -0.10152046974172 ]
      - [  0.69619862833787,  0.06997811540079 ]
      - [ -0.00000000000001,  0.00000000000000 ]

- q-position: [    0.0800000,    0.0800000,    0.0000000 ]
  distance:    0.0292708
  band:
  - # 1
    frequency:    2.3058642109
    eigenvector:
    - # atom 1
      - [  0.00000000000000,  0.00000000000000 ]
      - [  0.00000000000000, -0.00000000000000 ]
      - [ -0.00000000000147,  0.70710678118655 ]
    - # atom 2
      - [ -0.00000000000000, -0.00000000000000 ]
      - [  0.00000000000000, -0.00000000000000 ]
      - [ -0.00000000000147,  0.70710678118655 ]
  - # 2
    frequency:    0.9799486475
    eigenvector:
    - # atom 1
      - [ -0.70564649526653,  0.00000000000000 ]
      - [  0.04366947828179,  0.01249001139552 ]
      - [  0.00000000000000, -0.00000000000000 ]
    - # atom 2
      - [ -0.69387904011311, -0.00721706569037 ]
      - [  0.04306898299501,  0.12893740480677 ]
      - [  0.00000000000000, -0.00000000000000 ]
  - # 3
    frequency:    0.9799486475
    eigenvector:
    - # atom 1
      - [  0.04542052089160,  0.00000000000000 ]
      - [  0.67844255624474,  0.19404296987532 ]
      - [  0.00000000000000, -0.00000000000000 ]
    - # atom 2
      - [  0.07686458905211, -0.11212326522351 ]
      - [  0.66911335027745,  0.18386824855301 ]
      - [  0.00000000000000, -0.00000000000000 ]
  - # 4
    frequency:   15.0549731004
    eigenvector:
    - # atom 1
      - [  0.00000000000000, -0.00000000000000 ]
      - [  0.00000000000000,  0.00000000000000 ]
      - [  0.00000000000057,  0.70710678118655 ]
    - # atom 2
      - [  0.00000000000000,  0.00000000000000 ]
      - [ -0.00000000000000,  0.00000000000000 ]
      - [ -0.00000000000057, -0.70710678118655 ]
  - # 5
    frequency:   15.0127113319
    eigenvector:
    - # atom 1
      - [  0.69873036573166,  0.00000000000000 ]
      - [  0.10605112688046,  0.02300074981145 ]
      - [  0.00000000000000, -0.00000000000000 ]
    - # atom 2
      - [ -0.69292341820191,  0.01752661078970 ]
      - [ -0.10459282684220,  0.09279167524495 ]
      - [ -0.00000000000000,  0.00000000000000 ]
  - # 6
    frequency:   15.0127113319
    eigenvector:
    - # atom 1
      - [ -0.10851670841168,  0.00000000000000 ]
      - [  0.68285468437104,  0.14809997983803 ]
      - [  0.00000000000000, -0.00000000000000 ]
    - # atom 2
      - [  0.08254866162499,  0.11285243854489 ]
      - [ -0.67346480760463, -0.16399755637342 ]
      - [ -0.00000000000000,  0.00000000000000 ]

- q-position: [    0.0900000,    0.0900000,    0.0000000 ]
  distance:    0.0329296
  band:
  - # 1
    frequency:    2.5905062120
    eigenvector:
    - # atom 1
      - [  0.00000000000000,  0.00000000000000 ]
      - [ -0.00000000000000, -0.00000000000000 ]
      - [ -0.64737840261414,  0.28443136927697 ]
    - # atom 2
      - [ -0.00000000000000,  0.00000000000000 ]
      - [ -0.00000000000000, -0.00000000000000 ]
      - [ -0.64737840261414,  0.28443136927697 ]
  - # 2
    frequency:    1.1005681242
    eigenvector:
    - # atom 1
      - [ -0.64826234207782,  0.00000000000000 ]
      - [  0.25809780061725,  0.11463621225565 ]
      - [ -0.00000000000000,  0.00000000000000 ]
    - # atom 2
      - [ -0.61553843129159, -0.04810316842266 ]
      - [  0.25357555061789,  0.23344799189460 ]
      - [ -0.00000000000000,  0.00000000000000 ]
  - # 3
    frequency:    1.1005681242
    eigenvector:
    - # atom 1
      - [  0.28241093435592,  0.00000000000000 ]
      - [  0.59245257303815,  0.26314257135001 ]
      - [ -0.00000000000000,  0.00000000000000 ]
    - # atom 2
      - [  0.32650607408160, -0.11041878634818 ]
      - [  0.58207193964399,  0.20589738290784 ]
      - [ -0.00000000000000,  0.00000000000000 ]
  - # 4
    frequency:   15.0442159128
    eigenvector:
    - # atom 1
      - [ -0.00000000000000,  0.00000000000000 ]
      - [  0.00000000000001,  0.00000000000000 ]
      - [ -0.69827895154812,  0.11138449544196 ]
    - # atom 2
      - [ -0.00000000000000,  0.00000000000000 ]
      - [ -0.00000000000001, -0.00000000000000 ]
      - [  0.69827895154812, -0.11138449544196 ]
  - # 5
    frequency:   14.9915178769
    eigenvector:
    - # atom 1
      - [ -0.70710678118655,  0.00000000000000 ]
      - [  0.00000000000000, -0.00000000000000 ]
      - [  0.00000000000000, -0.00000000000000 ]
    - # atom 2
      - [  0.69471723879942,  0.00000000000000 ]
      - [ -0.00000000000000, -0.13178754916498 ]
      - [  0.00000000000000, -0.00000000000000 ]
  - # 6
    frequency:   14.9915178769
    eigenvector:
    - # atom 1
      - [  0.00000000000000,  0.00000000000000 ]
      - [ -0.70562872483127, -0.04569576230898 ]
      - [ -0.00000000000001,  0.00000000000000 ]
    - # atom 2
      - [  0.00851658148692, -0.13151207531892 ]
      - [  0.69326508014778,  0.04489510588890 ]
      - [  0.00000000000001, -0.00000000000000 ]

- q-position: [    0.1000000,    0.1000000,    0.0000000 ]
  distance:    0.0365885
  band:
  - # 1
    frequency:    2.8738978385
    eigenvector:
    - # atom 1
      - [  0.00000000000000,  0.00000000000000 ]
      - [  0.00000000000000,  0.00000000000000 ]
      - [ -0.00000000000043,  0.70710678118655 ]
    - # atom 2
      - [  0.00000000000000, -0.00000000000000 ]
      - [  0.00000000000000,  0.00000000000000 ]
      - [ -0.00000000000043,  0.70710678118655 ]
  - # 2
    frequency:    1.2205332521
    eigenvector:
    - # atom 1
      - [  0.68717378831341, -0.00000000000000 ]
      - [ -0.16045015859568,  0.04525407453057 ]
      - [  0.00000000000000,  0.00000000000000 ]
    - # atom 2
      - [  0.68159355331116,  0.03331595387254 ]
      - [ -0.15695317967771, -0.09841734954413 ]
      - [  0.00000000000000,  0.00000000000000 ]
  - # 3
    frequency:    1.2205332521
    eigenvector:
    - # atom 1
      - [  0.16670988169571,  0.00000000000000 ]
      - [  0.66137137280758, -0.18653611600871 ]
      - [ -0.00000000000000, -0.00000000000000 ]
    - # atom 2
      - [  0.12434401781803, -0.13732749373343 ]
      - [  0.64695691683008, -0.21708632491128 ]
      - [ -0.00000000000000, -0.00000000000000 ]
  - # 4
    frequency:   15.0318922019
    eigenvector:
    - # atom 1
      - [  0.00000000000000,  0.00000000000000 ]
      - [ -0.00000000000000,  0.00000000000001 ]
      - [  0.00000000000299,  0.70710678118655 ]
    - # atom 2
      - [ -0.00000000000000, -0.00000000000000 ]
      - [  0.00000000000000, -0.00000000000001 ]
      - [ -0.00000000000299, -0.70710678118655 ]
  - # 5
    frequency:   14.9679191726
    eigenvector:
    - # atom 1
      - [  0.62651658706112,  0.00000000000000 ]
      - [  0.32055447123425, -0.06871533387104 ]
      - [ -0.00000000000000,  0.00000000000000 ]
    - # atom 2
      - [ -0.59859369667877,  0.06656009611177 ]
      - [ -0.31356805104134,  0.19730792500093 ]
      - [  0.00000000000000, -0.00000000000000 ]
  - # 6
    frequency:   14.9679191726
    eigenvector:
    - # atom 1
      - [ -0.32783679802194,  0.00000000000000 ]
      - [  0.61259960595218, -0.13131929275605 ]
      - [ -0.00000000000001,  0.00000000000000 ]
    - # atom 2
      - [  0.34795886681311,  0.12720049885191 ]
      - [ -0.59924812081858,  0.06038501298640 ]
      - [  0.00000000000001, -0.00000000000000 ]

- q-position: [    0.1100000,    0.1100000,    0.0000000 ]
  distance:    0.0402473
  band:
  - # 1
    frequency:    3.1559093586
    eigenvector:
    - # atom 1
      - [  0.00000000000000, -0.00000000000000 ]
      - [  0.00000000000000, -0.00000000000000 ]
      - [ -0.00000000000001,  0.70710678118655 ]
    - # atom 2
      - [ -0.00000000000000, -0.00000000000000 ]
      - [  0.00000000000000, -0.00000000000000 ]
      - [ -0.00000000000001,  0.70710678118655 ]
  - # 2
    frequency:    1.3397745203
    eigenvector:
    - # atom 1
      - [ -0.68660935122742,  0.00000000000000 ]
      - [ -0.16526480987820, -0.03542797514656 ]
      - [ -0.00000000000000,  0.00000000000000 ]
    - # atom 2
      - [ -0.67646730646781,  0.03785793783291 ]
      - [ -0.16087023940778,  0.12279872106870 ]
      - [ -0.00000000000000,  0.00000000000000 ]
  - # 3
    frequency:    1.3397745203
    eigenvector:
    - # atom 1
      - [  0.16901952197028,  0.00000000000000 ]
      - [ -0.67135655436976, -0.14391934580764 ]
      - [ -0.00000000000000,  0.00000000000000 ]
    - # atom 2
      - [  0.13155687126274,  0.15379060259581 ]
      - [ -0.65350445572196, -0.17881042063683 ]
      - [ -0.00000000000000,  0.00000000000000 ]
  - # 4
    frequency:   15.0179075395
    eigenvector:
    - # atom 1
      - [ -0.00000000000000,  0.00000000000000 ]
      - [ -0.00000000000000,  0.00000000000000 ]
      - [ -0.00000000000114, -0.70710678118655 ]
    - # atom 2
      - [ -0.00000000000000, -0.00000000000000 ]
      - [  0.00000000000000, -0.00000000000000 ]
      - [  0.00000000000114,  0.70710678118655 ]
  - # 5
    frequency:   14.9419483925
    eigenvector:
    - # atom 1
      - [  0.70214993221363,  0.00000000000000 ]
      - [  0.08044873266598,  0.02265996700854 ]
      - [  0.00000000000000, -0.00000000000000 ]
    - # atom 2
      - [ -0.68866982270182,  0.01842874549186 ]
      - [ -0.07830951364400,  0.13878716335557 ]
      - [ -0.00000000000000,  0.00000000000000 ]
  - # 6
    frequency:   14.9419483925
    eigenvector:
    - # atom 1
      - [  0.08357914029464,  0.00000000000000 ]
      - [ -0.67585131874964, -0.19036680974368 ]
      - [ -0.00000000000000,  0.00000000000000 ]
    - # atom 2
      - [ -0.03774851684740, -0.15482023806747 ]
      - [  0.65787969944387,  0.20445059163573 ]
      - [  0.00000000000000, -0.00000000000000 ]

- q-position: [    0.1200000,    0.1200000,    0.0000000 ]
  distance:    0.0439062
  band:
  - # 1
    frequency:    3.4364137498
    eigenvector:
    - # atom 1
      - [  0.00000000000000,  0.00000000000000 ]
      - [  0.00000000000000, -0.00000000000000 ]
      - [  0.68791788317049,  0.16361230398179 ]
    - # atom 2
      - [  0.00000000000000,  0.00000000000000 ]
      - [ -0.00000000000000,  0.00000000000000 ]
      - [  0.68791788317049,  0.16361230398179 ]
  - # 2
    frequency:    1.4582228891
    eigenvector:
    - # atom 1
      - [  0.65689352698401,  0.00000000000000 ]
      - [ -0.26103354621699,  0.01877183943795 ]
      - [  0.00000000000000,  0.00000000000000 ]
    - # atom 2