  16  16   0   0
  0.2041579E+02  0.7730373E-09  0.7730373E-09  0.7730373E-09  0.5000000E-15
  1.000000000000000E-004
  CAR 
 unknown system                          
     10.70591111     -6.99769240  301      5.86877027      1.00000000
     -6.998  0.0000E+00  0.0000E+00
     -6.939  0.0000E+00  0.0000E+00
     -6.880  0.0000E+00  0.0000E+00
     -6.821  0.0000E+00  0.0000E+00
     -6.762  0.0000E+00  0.0000E+00
     -6.703  0.0000E+00  0.0000E+00
     -6.644  0.0000E+00  0.0000E+00
     -6.585  0.0000E+00  0.0000E+00
     -6.526  0.0000E+00  0.0000E+00
     -6.467  0.2675E-14  0.1579E-15
     -6.408  0.3397E-09  0.2005E-10
     -6.349  0.2861E-05  0.1688E-06
     -6.290  0.1668E-02  0.9858E-04
     -6.231  0.7463E-01  0.4503E-02
     -6.172  0.3092E+00  0.2275E-01
     -6.113  0.1394E+00  0.3098E-01
     -6.054  0.1813E+00  0.4168E-01
     -5.994  0.1911E+01  0.1545E+00
     -5.935  0.3124E+01  0.3388E+00
     -5.876  0.1925E+01  0.4524E+00
     -5.817  0.2740E+00  0.4685E+00
     -5.758  0.2369E-01  0.4699E+00
     -5.699  0.8911E+00  0.5225E+00
     -5.640  0.3709E+01  0.7414E+00
     -5.581  0.1667E+01  0.8398E+00
     -5.522  0.6938E+00  0.8807E+00
     -5.463  0.6043E+01  0.1237E+01
     -5.404  0.7703E+01  0.1692E+01
     -5.345  0.2397E+01  0.1833E+01
     -5.286  0.1748E+00  0.1844E+01
     -5.227  0.1003E-01  0.1844E+01
     -5.168  0.4163E+00  0.1869E+01
     -5.109  0.1839E+01  0.1977E+01
     -5.050  0.9710E+00  0.2035E+01
     -4.991  0.2834E+01  0.2202E+01
     -4.932  0.8776E+01  0.2720E+01
     -4.873  0.9186E+01  0.3262E+01
     -4.814  0.4304E+01  0.3516E+01
     -4.755  0.3239E+00  0.3535E+01
     -4.696  0.2264E+01  0.3669E+01
     -4.637  0.7567E+01  0.4115E+01
     -4.578  0.3112E+01  0.4299E+01
     -4.519  0.2474E+01  0.4445E+01
     -4.460  0.4046E+01  0.4683E+01
     -4.401  0.7666E+01  0.5136E+01
     -4.342  0.2392E+01  0.5277E+01
     -4.283  0.9106E-01  0.5282E+01
     -4.224  0.8813E+00  0.5334E+01
     -4.165  0.3726E+01  0.5554E+01
     -4.106  0.3108E+01  0.5738E+01
     -4.047  0.1175E+02  0.6431E+01
     -3.988  0.1926E+02  0.7568E+01
     -3.929  0.6227E+01  0.7935E+01
     -3.870  0.3175E+01  0.8123E+01
     -3.811  0.9085E+01  0.8659E+01
     -3.752  0.4976E+01  0.8953E+01
     -3.693  0.1401E+01  0.9035E+01
     -3.634  0.6838E+01  0.9439E+01
     -3.575  0.5467E+01  0.9761E+01
     -3.516  0.6960E+01  0.1017E+02
     -3.457  0.4882E+01  0.1046E+02
     -3.398  0.4362E+01  0.1072E+02
     -3.339  0.1172E+02  0.1141E+02
     -3.280  0.8330E+01  0.1190E+02
     -3.221  0.1227E+01  0.1197E+02
     -3.162  0.2702E+01  0.1213E+02
     -3.103  0.7566E+01  0.1258E+02
     -3.044  0.2400E+01  0.1272E+02
     -2.985  0.2859E+01  0.1289E+02
     -2.926  0.7554E+01  0.1334E+02
     -2.867  0.2589E+01  0.1349E+02
     -2.808  0.7552E+01  0.1393E+02
     -2.749  0.1448E+02  0.1479E+02
     -2.690  0.3003E+01  0.1497E+02
     -2.631  0.7673E-01  0.1497E+02
     -2.572  0.8920E+00  0.1502E+02
     -2.513  0.3709E+01  0.1524E+02
     -2.454  0.1661E+01  0.1534E+02
     -2.395  0.7282E-01  0.1534E+02
     -2.336  0.2561E-03  0.1534E+02
     -2.277  0.1368E-04  0.1534E+02
     -2.218  0.8597E-02  0.1534E+02
     -2.159  0.4227E+00  0.1537E+02
     -2.100  0.2618E+01  0.1552E+02
     -2.041  0.7203E+01  0.1595E+02
     -1.982  0.7150E+01  0.1637E+02
     -1.923  0.4072E+01  0.1661E+02
     -1.864  0.7528E+00  0.1666E+02
     -1.805  0.1417E-01  0.1666E+02
     -1.746  0.2038E-04  0.1666E+02
     -1.687  0.6942E-04  0.1666E+02
     -1.628  0.3169E-01  0.1666E+02
     -1.569  0.1126E+01  0.1672E+02
     -1.510  0.3780E+01  0.1695E+02
     -1.451  0.1369E+01  0.1703E+02
     -1.392  0.4832E-01  0.1703E+02
     -1.333  0.2268E+00  0.1704E+02
     -1.274  0.6192E+01  0.1741E+02
     -1.215  0.1678E+02  0.1840E+02
     -1.156  0.1008E+02  0.1900E+02
     -1.096  0.1082E+02  0.1963E+02
     -1.037  0.1318E+02  0.2041E+02
     -0.978  0.9960E+01  0.2100E+02
     -0.919  0.1086E+02  0.2164E+02
     -0.860  0.1032E+02  0.2225E+02
     -0.801  0.2611E+01  0.2240E+02
     -0.742  0.1523E+01  0.2249E+02
     -0.683  0.1121E+02  0.2315E+02
     -0.624  0.1126E+02  0.2382E+02
     -0.565  0.1466E+01  0.2391E+02
     -0.506  0.1985E-01  0.2391E+02
     -0.447  0.1786E-03  0.2391E+02
     -0.388  0.6864E-01  0.2391E+02
     -0.329  0.2374E+01  0.2405E+02
     -0.270  0.8532E+01  0.2455E+02
     -0.211  0.6978E+01  0.2497E+02
     -0.152  0.1389E+02  0.2579E+02
     -0.093  0.1098E+02  0.2643E+02
     -0.034  0.2449E+01  0.2658E+02
      0.025  0.2721E+00  0.2659E+02
      0.084  0.1257E-01  0.2659E+02
      0.143  0.5820E+00  0.2663E+02
      0.202  0.3448E+01  0.2683E+02
      0.261  0.2177E+01  0.2696E+02
      0.320  0.2849E+00  0.2698E+02
      0.379  0.3329E+01  0.2717E+02
      0.438  0.7416E+01  0.2761E+02
      0.497  0.1779E+01  0.2772E+02
      0.556  0.3952E-01  0.2772E+02
      0.615  0.3015E-01  0.2772E+02
      0.674  0.1546E+01  0.2781E+02
      0.733  0.7274E+01  0.2824E+02
      0.792  0.3674E+01  0.2846E+02
      0.851  0.1837E+00  0.2847E+02
      0.910  0.1395E-02  0.2847E+02
      0.969  0.1692E+00  0.2848E+02
      1.028  0.3546E+01  0.2869E+02
      1.087  0.7331E+01  0.2912E+02
      1.146  0.1629E+01  0.2922E+02
      1.205  0.3331E-01  0.2922E+02
      1.264  0.3541E-01  0.2922E+02
      1.323  0.1694E+01  0.2932E+02
      1.382  0.8102E+01  0.2980E+02
      1.441  0.7894E+01  0.3026E+02
      1.500  0.8391E+01  0.3076E+02
      1.559  0.5297E+01  0.3107E+02
      1.618  0.3815E+01  0.3130E+02
      1.677  0.1655E+02  0.3227E+02
      1.736  0.1600E+02  0.3322E+02
      1.795  0.6074E+01  0.3358E+02
      1.854  0.2766E+01  0.3374E+02
      1.913  0.4046E+01  0.3398E+02
      1.972  0.4080E+01  0.3422E+02
      2.031  0.2029E+01  0.3434E+02
      2.090  0.1124E+01  0.3441E+02
      2.149  0.5987E+01  0.3476E+02
      2.208  0.1060E+02  0.3538E+02
      2.267  0.1838E+02  0.3647E+02
      2.326  0.2285E+02  0.3782E+02
      2.385  0.2501E+02  0.3929E+02
      2.444  0.1680E+02  0.4028E+02
      2.503  0.4015E+01  0.4052E+02
      2.562  0.1680E+00  0.4053E+02
      2.621  0.1723E-01  0.4053E+02
      2.680  0.1538E+01  0.4062E+02
      2.739  0.1242E+02  0.4136E+02
      2.798  0.1103E+02  0.4201E+02
      2.857  0.3050E+01  0.4219E+02
      2.916  0.6376E+01  0.4256E+02
      2.975  0.2131E+02  0.4382E+02
      3.034  0.2491E+02  0.4529E+02
      3.093  0.1448E+02  0.4614E+02
      3.152  0.9397E+01  0.4670E+02
      3.211  0.7941E+01  0.4717E+02
      3.270  0.9088E+01  0.4770E+02
      3.329  0.5336E+01  0.4802E+02
      3.388  0.1422E+02  0.4886E+02
      3.447  0.1520E+02  0.4975E+02
      3.506  0.1977E+02  0.5092E+02
      3.565  0.1020E+02  0.5152E+02
      3.624  0.1184E+01  0.5159E+02
      3.683  0.1380E+01  0.5167E+02
      3.742  0.1464E+02  0.5254E+02
      3.802  0.2581E+02  0.5406E+02
      3.861  0.1345E+02  0.5486E+02
      3.920  0.1890E+01  0.5497E+02
      3.979  0.5150E+00  0.5500E+02
      4.038  0.6917E+01  0.5541E+02
      4.097  0.1805E+02  0.5647E+02
      4.156  0.1000E+02  0.5706E+02
      4.215  0.4951E+01  0.5735E+02
      4.274  0.9103E+01  0.5789E+02
      4.333  0.1196E+02  0.5860E+02
      4.392  0.1997E+02  0.5977E+02
      4.451  0.1529E+02  0.6068E+02
      4.510  0.4231E+01  0.6093E+02
      4.569  0.4497E+01  0.6119E+02
      4.628  0.3361E+01  0.6139E+02
      4.687  0.2715E+00  0.6141E+02
      4.746  0.2328E-01  0.6141E+02
      4.805  0.1376E+01  0.6149E+02
      4.864  0.1103E+02  0.6214E+02
      4.923  0.1298E+02  0.6291E+02
      4.982  0.2096E+01  0.6303E+02
      5.041  0.3652E-01  0.6303E+02
      5.100  0.5441E-04  0.6303E+02
      5.159  0.1110E-05  0.6303E+02
      5.218  0.2423E-02  0.6303E+02
      5.277  0.3931E+00  0.6305E+02
      5.336  0.5433E+01  0.6338E+02
      5.395  0.7779E+01  0.6383E+02
      5.454  0.1203E+01  0.6391E+02
      5.513  0.1752E-01  0.6391E+02
      5.572  0.7292E-01  0.6391E+02
      5.631  0.7127E+00  0.6395E+02
      5.690  0.7249E+00  0.6400E+02
      5.749  0.7687E-01  0.6400E+02
      5.808  0.7008E-03  0.6400E+02
      5.867  0.4684E-06  0.6400E+02
      5.926  0.2122E-10  0.6400E+02
      5.985  0.1764E-15  0.6400E+02
      6.044  0.4585E-10  0.6400E+02
      6.103  0.9937E-06  0.6400E+02
      6.162  0.1460E-02  0.6400E+02
      6.221  0.1574E+00  0.6401E+02
      6.280  0.1468E+01  0.6410E+02
      6.339  0.1802E+01  0.6420E+02
      6.398  0.1962E+01  0.6432E+02
      6.457  0.9422E+00  0.6437E+02
      6.516  0.1411E+01  0.6446E+02
      6.575  0.7121E+01  0.6488E+02
      6.634  0.3976E+01  0.6511E+02
      6.693  0.2417E+00  0.6513E+02
      6.752  0.6382E+00  0.6516E+02
      6.811  0.2334E+01  0.6530E+02
      6.870  0.3836E+01  0.6553E+02
      6.929  0.2778E+01  0.6569E+02
      6.988  0.4509E+01  0.6596E+02
      7.047  0.7048E+01  0.6637E+02
      7.106  0.2623E+01  0.6653E+02
      7.165  0.6508E+01  0.6691E+02
      7.224  0.9973E+01  0.6750E+02
      7.283  0.3871E+01  0.6773E+02
      7.342  0.3421E+00  0.6775E+02
      7.401  0.1057E+00  0.6776E+02
      7.460  0.2829E+01  0.6792E+02
      7.519  0.8058E+01  0.6840E+02
      7.578  0.1198E+02  0.6911E+02
      7.637  0.2507E+02  0.7058E+02
      7.696  0.9837E+01  0.7117E+02
      7.755  0.5439E+01  0.7149E+02
      7.814  0.1585E+02  0.7242E+02
      7.873  0.1264E+02  0.7317E+02
      7.932  0.8702E+01  0.7368E+02
      7.991  0.1165E+02  0.7437E+02
      8.050  0.2200E+02  0.7567E+02
      8.109  0.1973E+02  0.7683E+02
      8.168  0.4156E+01  0.7708E+02
      8.227  0.1655E+01  0.7717E+02
      8.286  0.1078E+02  0.7781E+02
      8.345  0.1231E+02  0.7854E+02
      8.404  0.1677E+01  0.7863E+02
      8.463  0.6829E+01  0.7904E+02
      8.522  0.2723E+02  0.8064E+02
      8.581  0.1808E+02  0.8171E+02
      8.640  0.1139E+02  0.8238E+02
      8.700  0.9762E+01  0.8296E+02
      8.759  0.8177E+01  0.8344E+02
      8.818  0.7260E+01  0.8387E+02
      8.877  0.1110E+01  0.8394E+02
      8.936  0.1828E-01  0.8394E+02
      8.995  0.1352E-02  0.8394E+02
      9.054  0.2462E+00  0.8395E+02
      9.113  0.5061E+01  0.8425E+02
      9.172  0.1783E+02  0.8530E+02
      9.231  0.1360E+02  0.8611E+02
      9.290  0.9939E+01  0.8669E+02
      9.349  0.3015E+01  0.8687E+02
      9.408  0.8046E+00  0.8692E+02
      9.467  0.6049E+01  0.8727E+02
      9.526  0.5439E+01  0.8759E+02
      9.585  0.5059E+00  0.8762E+02
      9.644  0.4000E-02  0.8762E+02
      9.703  0.2368E-05  0.8763E+02
      9.762  0.2533E-03  0.8763E+02
      9.821  0.7232E-01  0.8763E+02
      9.880  0.1656E+01  0.8773E+02
      9.939  0.3711E+01  0.8795E+02
      9.998  0.8955E+00  0.8800E+02
     10.057  0.2001E-01  0.8800E+02
     10.116  0.3433E-04  0.8800E+02
     10.175  0.4077E-08  0.8800E+02
     10.234  0.3245E-13  0.8800E+02
     10.293  0.0000E+00  0.8800E+02
     10.352  0.0000E+00  0.8800E+02
     10.411  0.0000E+00  0.8800E+02
     10.470  0.0000E+00  0.8800E+02
     10.529  0.0000E+00  0.8800E+02
     10.588  0.0000E+00  0.8800E+02
     10.647  0.0000E+00  0.8800E+02
     10.706  0.0000E+00  0.8800E+02
