       N       E                     dE             d eps       ncg     rms          rms(c)
DAV:   1     0.150921829288E+03    0.15092E+03   -0.23584E+04   704   0.116E+03
DAV:   2    -0.744662682817E+02   -0.22539E+03   -0.21025E+03   876   0.166E+02
DAV:   3    -0.878509425549E+02   -0.13385E+02   -0.13172E+02   928   0.374E+01
DAV:   4    -0.881169775232E+02   -0.26603E+00   -0.26518E+00   876   0.654E+00
DAV:   5    -0.881252117369E+02   -0.82342E-02   -0.82239E-02   884   0.107E+00    0.135E+01
DAV:   6    -0.871891559275E+02    0.93606E+00   -0.49850E-01   792   0.212E+00    0.825E+00
DAV:   7    -0.867576092186E+02    0.43155E+00   -0.10694E+00   792   0.322E+00    0.471E-01
DAV:   8    -0.867665042904E+02   -0.88951E-02   -0.60189E-02   820   0.843E-01    0.175E-01
DAV:   9    -0.867679950442E+02   -0.14908E-02   -0.24760E-03   880   0.197E-01    0.165E-01
DAV:  10    -0.867685027097E+02   -0.50767E-03   -0.12042E-03   784   0.123E-01    0.876E-02
DAV:  11    -0.867685095012E+02   -0.67916E-05   -0.36469E-05   836   0.220E-02    0.515E-03
DAV:  12    -0.867685131465E+02   -0.36453E-05   -0.40869E-06   848   0.793E-03    0.612E-03
DAV:  13    -0.867685114680E+02    0.16786E-05   -0.87834E-07   820   0.291E-03    0.643E-04
DAV:  14    -0.867685114463E+02    0.21684E-07   -0.17549E-08   640   0.489E-04    0.671E-04
DAV:  15    -0.867685114788E+02   -0.32499E-07   -0.16107E-09   488   0.182E-04    0.210E-04
DAV:  16    -0.867685114557E+02    0.23079E-07   -0.42527E-10   452   0.849E-05    0.658E-05
DAV:  17    -0.867685114581E+02   -0.24002E-08   -0.13071E-10   448   0.457E-05
   1 F= -.86768511E+02 E0= -.86768511E+02  d E =-.212580E-12
 Linear response reoptimize wavefunctions
DAV:   1    -0.867685114572E+02    0.95042E-09   -0.28430E-11   448   0.238E-05
DAV:   2    -0.867685114572E+02   -0.40018E-10   -0.47916E-12   448   0.122E-05
 Linear response DOF=           1
 Linear response progress:
  Degree of freedom:   1/  1
       N       E                     dE             d eps       ncg     rms          rms(c)
RMM:   1    -0.285782484924E-01   -0.28578E-01    0.94603E-04  4165   0.650E-01
RMM:   2    -0.219786044475E-01    0.65996E-02   -0.19649E-03  2588   0.163E-01    0.985E-02
RMM:   3    -0.219174941708E-01    0.61110E-04   -0.29677E-04  2732   0.416E-02    0.558E-02
RMM:   4    -0.219765221713E-01   -0.59028E-04   -0.12339E-04  2761   0.266E-02    0.173E-02
RMM:   5    -0.219771451005E-01   -0.62293E-06   -0.11904E-05  2747   0.976E-03    0.397E-03
RMM:   6    -0.219807364667E-01   -0.35914E-05   -0.72894E-07  2782   0.252E-03    0.167E-03
RMM:   7    -0.219760653205E-01    0.46711E-05   -0.22120E-07  2758   0.126E-03    0.462E-04
RMM:   8    -0.219767164427E-01   -0.65112E-06   -0.10854E-08  2776   0.378E-04    0.171E-04
RMM:   9    -0.219772449514E-01   -0.52851E-06    0.10065E-08  2776   0.199E-04    0.456E-05
RMM:  10    -0.219771115247E-01    0.13343E-06    0.15333E-08  2852   0.848E-05    0.184E-05
RMM:  11    -0.219771127697E-01   -0.12450E-08    0.17945E-08  3003   0.464E-05    0.678E-06
 Linear response finished
