 vasp.5.4.4.18Apr17-6-g9f103f2a35 (build Dec 20 2022 00:15:14) complex          
  
 executed on             LinuxIFC date 2023.06.08  20:01:31
 running on    4 total cores
 distrk:  each k-point on    4 cores,    1 groups
 distr:  one band on NCORES_PER_BAND=   1 cores,    4 groups


--------------------------------------------------------------------------------------------------------


 INCAR:
 POTCAR:    PAW_PBE Si 05Jan2001                  
 POTCAR:    PAW_PBE Si 05Jan2001                  
   VRHFIN =Si: s2p2                                                             
   LEXCH  = PE                                                                  
   EATOM  =   103.0669 eV,    7.5752 Ry                                         
                                                                                
   TITEL  = PAW_PBE Si 05Jan2001                                                
   LULTRA =        F    use ultrasoft PP ?                                      
   IUNSCR =        1    unscreen: 0-lin 1-nonlin 2-no                           
   RPACOR =    1.500    partial core radius                                     
   POMASS =   28.085; ZVAL   =    4.000    mass and valenz                      
   RCORE  =    1.900    outmost cutoff radius                                   
   RWIGS  =    2.480; RWIGS  =    1.312    wigner-seitz radius (au A)           
   ENMAX  =  245.345; ENMIN  =  184.009 eV                                      
   ICORE  =        2    local potential                                         
   LCOR   =        T    correct aug charges                                     
   LPAW   =        T    paw PP                                                  
   EAUG   =  322.069                                                            
   DEXC   =    0.000                                                            
   RMAX   =    1.950    core radius for proj-oper                               
   RAUG   =    1.300    factor for augmentation sphere                          
   RDEP   =    1.993    radius for radial grids                                 
   RDEPT  =    1.837    core radius for aug-charge                              
                                                                                
   Atomic configuration                                                         
    6 entries                                                                   
     n  l   j            E        occ.                                          
     1  0  0.50     -1785.8828   2.0000                                         
     2  0  0.50      -139.4969   2.0000                                         
     2  1  1.50       -95.5546   6.0000                                         
     3  0  0.50       -10.8127   2.0000                                         
     3  1  0.50        -4.0811   2.0000                                         
     3  2  1.50        -4.0817   0.0000                                         
   Description                                                                  
     l       E           TYP  RCUT    TYP  RCUT                                 
     0    -10.8127223     23  1.900                                             
     0     -7.6451159     23  1.900                                             
     1     -4.0811372     23  1.900                                             
     1      2.4879257     23  1.900                                             
     2     -4.0817478      7  1.900                                             
  local pseudopotential read in
  partial core-charges read in
  partial kinetic energy density read in
  atomic valenz-charges read in
  non local Contribution for L=           0  read in
    real space projection operators read in
  non local Contribution for L=           0  read in
    real space projection operators read in
  non local Contribution for L=           1  read in
    real space projection operators read in
  non local Contribution for L=           1  read in
    real space projection operators read in
    PAW grid and wavefunctions read in
 
   number of l-projection  operators is LMAX  =           4
   number of lm-projection operators is LMMAX =           8
 
  PAW_PBE Si 05Jan2001                  :
 energy of atom  1       EATOM= -103.0669
 kinetic energy error for atom=    0.0006 (will be added to EATOM!!)
 
 
 POSCAR: generated by phonopy                    
  positions in direct lattice
  No initial velocities read in
 exchange correlation table for  LEXCH =        8
   RHO(1)=    0.500       N(1)  =     2000
   RHO(2)=  100.500       N(2)  =     4000
 


--------------------------------------------------------------------------------------------------------


 ion  position               nearest neighbor table
   1  0.438  0.438  0.438-  16 2.37  14 2.37  15 2.37  12 2.37
   2  0.938  0.438  0.438-  15 2.37  13 2.37  11 2.37  16 2.37
   3  0.438  0.938  0.438-  14 2.37  13 2.37  10 2.37  16 2.37
   4  0.938  0.938  0.438-  13 2.37   9 2.37  14 2.37  15 2.37
   5  0.438  0.438  0.938-  12 2.37  11 2.37  10 2.37  16 2.37
   6  0.938  0.438  0.938-  11 2.37   9 2.37  12 2.37  15 2.37
   7  0.438  0.938  0.938-  10 2.37   9 2.37  12 2.37  14 2.37
   8  0.938  0.938  0.938-   9 2.37  10 2.37  11 2.37  13 2.37
   9  0.062  0.062  0.062-   8 2.37   6 2.37   7 2.37   4 2.37
  10  0.562  0.062  0.062-   7 2.37   5 2.37   3 2.37   8 2.37
  11  0.062  0.562  0.062-   6 2.37   5 2.37   2 2.37   8 2.37
  12  0.562  0.562  0.062-   5 2.37   1 2.37   6 2.37   7 2.37
  13  0.062  0.062  0.562-   4 2.37   3 2.37   2 2.37   8 2.37
  14  0.562  0.062  0.562-   3 2.37   1 2.37   4 2.37   7 2.37
  15  0.062  0.562  0.562-   2 2.37   1 2.37   4 2.37   6 2.37
  16  0.562  0.562  0.562-   1 2.37   2 2.37   3 2.37   5 2.37
 
  LATTYP: Found a face centered cubic cell.
 ALAT       =    10.9323976875
  
  Lattice vectors:
  
 A1 = (   0.0000000000,   5.4661988438,   5.4661988438)
 A2 = (   5.4661988438,   0.0000000000,   5.4661988438)
 A3 = (   5.4661988438,   5.4661988438,   0.0000000000)


Analysis of symmetry for initial positions (statically):
=====================================================================
 Subroutine PRICEL returns following result:
 
  LATTYP: Found a face centered cubic cell.
 ALAT       =     5.4661988438
  
  Lattice vectors:
  
 A1 = (   0.0000000000,   2.7330994219,   2.7330994219)
 A2 = (   2.7330994219,   0.0000000000,   2.7330994219)
 A3 = (   2.7330994219,   2.7330994219,   0.0000000000)
 
   8 primitive cells build up your supercell.
 

 Routine SETGRP: Setting up the symmetry group for a 
 face centered cubic supercell.


 Subroutine GETGRP returns: Found 48 space group operations
 (whereof 12 operations were pure point group operations)
 out of a pool of 48 trial point group operations.


The static configuration has the point symmetry D_3d.
 The point group associated with its full space group is O_h .


Analysis of symmetry for dynamics (positions and initial velocities):
=====================================================================
 Subroutine PRICEL returns following result:
 
  LATTYP: Found a face centered cubic cell.
 ALAT       =     5.4661988438
  
  Lattice vectors:
  
 A1 = (   0.0000000000,   2.7330994219,   2.7330994219)
 A2 = (   2.7330994219,   0.0000000000,   2.7330994219)
 A3 = (   2.7330994219,   2.7330994219,   0.0000000000)
 
   8 primitive cells build up your supercell.
 

 Routine SETGRP: Setting up the symmetry group for a 
 face centered cubic supercell.


 Subroutine GETGRP returns: Found 48 space group operations
 (whereof 12 operations were pure point group operations)
 out of a pool of 48 trial point group operations.


The dynamic configuration has the point symmetry D_3d.
 The point group associated with its full space group is O_h .


 Subroutine INISYM returns: Found 48 space group operations
 (whereof 12 operations are pure point group operations),
 and found     8 'primitive' translations

 
 
 KPOINTS: K-Spacing Value to Generate K-Mesh: 0.04

Automatic generation of k-mesh.
Space group operators:
 irot       det(A)        alpha          n_x          n_y          n_z        tau_x        tau_y        tau_z
    1     1.000000     0.000000     1.000000     0.000000     0.000000     0.000000     0.000000     0.000000
    2    -1.000000     0.000000     1.000000     0.000000     0.000000     0.000000     0.000000     0.000000
    3     1.000000   120.000000    -0.577350    -0.577350    -0.577350     0.000000     0.000000     0.000000
    4    -1.000000   120.000000    -0.577350    -0.577350    -0.577350     0.000000     0.000000     0.000000
    5     1.000000   120.000000     0.577350     0.577350     0.577350     0.000000     0.000000     0.000000
    6    -1.000000   120.000000     0.577350     0.577350     0.577350     0.000000     0.000000     0.000000
    7     1.000000   180.000000     0.000000    -0.707107     0.707107     0.000000     0.000000     0.000000
    8    -1.000000   180.000000     0.000000    -0.707107     0.707107     0.000000     0.000000     0.000000
    9     1.000000   180.000000     0.707107    -0.707107     0.000000     0.000000     0.000000     0.000000
   10    -1.000000   180.000000     0.707107    -0.707107     0.000000     0.000000     0.000000     0.000000
   11     1.000000   180.000000     0.707107     0.000000    -0.707107     0.000000     0.000000     0.000000
   12    -1.000000   180.000000     0.707107     0.000000    -0.707107     0.000000     0.000000     0.000000
   13     1.000000    90.000000     0.000000     0.000000    -1.000000     0.250000     0.000000     0.000000
   14    -1.000000    90.000000     0.000000     0.000000    -1.000000     0.250000     0.000000     0.000000
   15     1.000000   180.000000     0.000000     0.707107     0.707107     0.250000     0.000000     0.000000
   16    -1.000000   180.000000     0.000000     0.707107     0.707107     0.250000     0.000000     0.000000
   17     1.000000    90.000000     0.000000     1.000000     0.000000     0.250000     0.000000     0.000000
   18    -1.000000    90.000000     0.000000     1.000000     0.000000     0.250000     0.000000     0.000000
   19     1.000000   180.000000     0.000000     0.000000     1.000000     0.000000     0.000000     0.250000
   20    -1.000000   180.000000     0.000000     0.000000     1.000000     0.000000     0.000000     0.250000
   21     1.000000   120.000000    -0.577350     0.577350     0.577350     0.000000     0.000000     0.250000
   22    -1.000000   120.000000    -0.577350     0.577350     0.577350     0.000000     0.000000     0.250000
   23     1.000000   120.000000    -0.577350     0.577350    -0.577350     0.000000     0.000000     0.250000
   24    -1.000000   120.000000    -0.577350     0.577350    -0.577350     0.000000     0.000000     0.250000
   25     1.000000    90.000000     0.000000     0.000000     1.000000     0.000000     0.250000     0.000000
   26    -1.000000    90.000000     0.000000     0.000000     1.000000     0.000000     0.250000     0.000000
   27     1.000000    90.000000    -1.000000     0.000000     0.000000     0.000000     0.250000     0.000000
   28    -1.000000    90.000000    -1.000000     0.000000     0.000000     0.000000     0.250000     0.000000
   29     1.000000   180.000000     0.707107     0.000000     0.707107     0.000000     0.250000     0.000000
   30    -1.000000   180.000000     0.707107     0.000000     0.707107     0.000000     0.250000     0.000000
   31     1.000000   120.000000     0.577350    -0.577350     0.577350     0.250000     0.000000     0.000000
   32    -1.000000   120.000000     0.577350    -0.577350     0.577350     0.250000     0.000000     0.000000
   33     1.000000   120.000000    -0.577350    -0.577350     0.577350     0.250000     0.000000     0.000000
   34    -1.000000   120.000000    -0.577350    -0.577350     0.577350     0.250000     0.000000     0.000000
   35     1.000000   180.000000     1.000000     0.000000     0.000000     0.250000     0.000000     0.000000
   36    -1.000000   180.000000     1.000000     0.000000     0.000000     0.250000     0.000000     0.000000
   37     1.000000    90.000000     0.000000    -1.000000     0.000000     0.000000     0.000000     0.250000
   38    -1.000000    90.000000     0.000000    -1.000000     0.000000     0.000000     0.000000     0.250000
   39     1.000000   180.000000     0.707107     0.707107     0.000000     0.000000     0.000000     0.250000
   40    -1.000000   180.000000     0.707107     0.707107     0.000000     0.000000     0.000000     0.250000
   41     1.000000    90.000000     1.000000     0.000000     0.000000     0.000000     0.000000     0.250000
   42    -1.000000    90.000000     1.000000     0.000000     0.000000     0.000000     0.000000     0.250000
   43     1.000000   120.000000     0.577350    -0.577350    -0.577350     0.000000     0.250000     0.000000
   44    -1.000000   120.000000     0.577350    -0.577350    -0.577350     0.000000     0.250000     0.000000
   45     1.000000   180.000000     0.000000     1.000000     0.000000     0.000000     0.250000     0.000000
   46    -1.000000   180.000000     0.000000     1.000000     0.000000     0.000000     0.250000     0.000000
   47     1.000000   120.000000     0.577350     0.577350    -0.577350     0.000000     0.250000     0.000000
   48    -1.000000   120.000000     0.577350     0.577350    -0.577350     0.000000     0.250000     0.000000
 
 Subroutine IBZKPT returns following result:
 ===========================================
 
 Found      8 irreducible k-points:
 
 Following reciprocal coordinates:
            Coordinates               Weight
  0.000000  0.000000  0.000000      1.000000
  0.250000  0.000000  0.000000      8.000000
  0.500000  0.000000  0.000000      4.000000
  0.250000  0.250000  0.000000      6.000000
  0.500000  0.250000  0.000000     24.000000
 -0.250000  0.250000  0.000000     12.000000
  0.500000  0.500000  0.000000      3.000000
 -0.250000  0.500000  0.250000      6.000000
 
 Following cartesian coordinates:
            Coordinates               Weight
  0.000000  0.000000  0.000000      1.000000
 -0.022868  0.022868  0.022868      8.000000
 -0.045736  0.045736  0.045736      4.000000
  0.000000  0.000000  0.045736      6.000000
 -0.022868  0.022868  0.068603     24.000000
  0.045736 -0.045736  0.000000     12.000000
  0.000000  0.000000  0.091471      3.000000
  0.091471 -0.045736  0.000000      6.000000
 
 
 Subroutine IBZKPT_HF returns following result:
 ==============================================
 
 Found     64 k-points in 1st BZ
 the following     64 k-points will be used (e.g. in the exchange kernel)
 Following reciprocal coordinates:   # in IRBZ
  0.000000  0.000000  0.000000    0.01562500   1 t-inv F
  0.250000  0.000000  0.000000    0.01562500   2 t-inv F
  0.500000  0.000000  0.000000    0.01562500   3 t-inv F
  0.250000  0.250000  0.000000    0.01562500   4 t-inv F
  0.500000  0.250000  0.000000    0.01562500   5 t-inv F
 -0.250000  0.250000  0.000000    0.01562500   6 t-inv F
  0.500000  0.500000  0.000000    0.01562500   7 t-inv F
 -0.250000  0.500000  0.250000    0.01562500   8 t-inv F
 -0.250000  0.000000  0.000000    0.01562500   2 t-inv F
  0.000000  0.250000  0.000000    0.01562500   2 t-inv F
  0.000000 -0.250000  0.000000    0.01562500   2 t-inv F
  0.000000  0.000000  0.250000    0.01562500   2 t-inv F
  0.000000  0.000000 -0.250000    0.01562500   2 t-inv F
  0.250000  0.250000  0.250000    0.01562500   2 t-inv F
 -0.250000 -0.250000 -0.250000    0.01562500   2 t-inv F
  0.000000  0.500000  0.000000    0.01562500   3 t-inv F
  0.000000  0.000000  0.500000    0.01562500   3 t-inv F
  0.500000  0.500000  0.500000    0.01562500   3 t-inv F
 -0.250000 -0.250000  0.000000    0.01562500   4 t-inv F
  0.000000  0.250000  0.250000    0.01562500   4 t-inv F
  0.000000 -0.250000 -0.250000    0.01562500   4 t-inv F
  0.250000  0.000000  0.250000    0.01562500   4 t-inv F
 -0.250000  0.000000 -0.250000    0.01562500   4 t-inv F
 -0.500000 -0.250000  0.000000    0.01562500   5 t-inv F
  0.000000  0.500000  0.250000    0.01562500   5 t-inv F
  0.000000 -0.500000 -0.250000    0.01562500   5 t-inv F
  0.250000  0.000000  0.500000    0.01562500   5 t-inv F
 -0.250000  0.000000 -0.500000    0.01562500   5 t-inv F
 -0.500000  0.000000 -0.250000    0.01562500   5 t-inv F
  0.500000  0.000000  0.250000    0.01562500   5 t-inv F
 -0.250000 -0.500000  0.000000    0.01562500   5 t-inv F
  0.250000  0.500000  0.000000    0.01562500   5 t-inv F
  0.000000 -0.250000 -0.500000    0.01562500   5 t-inv F
  0.000000  0.250000  0.500000    0.01562500   5 t-inv F
  0.250000  0.250000 -0.250000    0.01562500   5 t-inv F
 -0.250000 -0.250000  0.250000    0.01562500   5 t-inv F
  0.500000  0.250000  0.500000    0.01562500   5 t-inv F
 -0.500000 -0.250000 -0.500000    0.01562500   5 t-inv F
  0.250000 -0.250000 -0.250000    0.01562500   5 t-inv F
 -0.250000  0.250000  0.250000    0.01562500   5 t-inv F
  0.500000  0.500000  0.250000    0.01562500   5 t-inv F
 -0.500000 -0.500000 -0.250000    0.01562500   5 t-inv F
 -0.250000  0.250000 -0.250000    0.01562500   5 t-inv F
  0.250000 -0.250000  0.250000    0.01562500   5 t-inv F
  0.250000  0.500000  0.500000    0.01562500   5 t-inv F
 -0.250000 -0.500000 -0.500000    0.01562500   5 t-inv F
  0.250000 -0.250000  0.000000    0.01562500   6 t-inv F
  0.000000 -0.250000  0.250000    0.01562500   6 t-inv F
  0.000000  0.250000 -0.250000    0.01562500   6 t-inv F
  0.250000  0.000000 -0.250000    0.01562500   6 t-inv F
 -0.250000  0.000000  0.250000    0.01562500   6 t-inv F
  0.250000  0.250000  0.500000    0.01562500   6 t-inv F
 -0.250000 -0.250000 -0.500000    0.01562500   6 t-inv F
 -0.250000 -0.500000 -0.250000    0.01562500   6 t-inv F
  0.250000  0.500000  0.250000    0.01562500   6 t-inv F
 -0.500000 -0.250000 -0.250000    0.01562500   6 t-inv F
  0.500000  0.250000  0.250000    0.01562500   6 t-inv F
  0.000000  0.500000  0.500000    0.01562500   7 t-inv F
  0.500000  0.000000  0.500000    0.01562500   7 t-inv F
  0.250000 -0.500000 -0.250000    0.01562500   8 t-inv F
  0.250000 -0.250000  0.500000    0.01562500   8 t-inv F
 -0.250000  0.250000 -0.500000    0.01562500   8 t-inv F
  0.500000  0.250000 -0.250000    0.01562500   8 t-inv F
 -0.500000 -0.250000  0.250000    0.01562500   8 t-inv F


--------------------------------------------------------------------------------------------------------




 Dimension of arrays:
   k-points           NKPTS =      8   k-points in BZ     NKDIM =      8   number of bands    NBANDS=     44
   number of dos      NEDOS =    301   number of ions     NIONS =     16
   non local maximal  LDIM  =      4   non local SUM 2l+1 LMDIM =      8
   total plane-waves  NPLWV = 175616
   max r-space proj   IRMAX =      1   max aug-charges    IRDMAX= 143986
   dimension x,y,z NGX =    56 NGY =   56 NGZ =   56
   dimension x,y,z NGXF=   112 NGYF=  112 NGZF=  112
   support grid    NGXF=   224 NGYF=  224 NGZF=  224
   ions per type =              16
   NGX,Y,Z   is equivalent  to a cutoff of  12.04, 12.04, 12.04 a.u.
   NGXF,Y,Z  is equivalent  to a cutoff of  24.09, 24.09, 24.09 a.u.

 SYSTEM =  unknown system                          
 POSCAR =  generated by phonopy                    

 Startparameter for this run:
   NWRITE =      2    write-flag & timer
   PREC   = a         normal or accurate (medium, high low for compatibility)
   ISTART =      0    job   : 0-new  1-cont  2-samecut
   ICHARG =      2    charge: 1-file 2-atom 10-const
   ISPIN  =      1    spin polarized calculation?
   LNONCOLLINEAR =      F non collinear calculations
   LSORBIT =      F    spin-orbit coupling
   INIWAV =      1    electr: 0-lowe 1-rand  2-diag
   LASPH  =      F    aspherical Exc in radial PAW
   METAGGA=      F    non-selfconsistent MetaGGA calc.

 Electronic Relaxation 1
   ENCUT  =  500.0 eV  36.75 Ry    6.06 a.u.  14.09 14.09 14.09*2*pi/ulx,y,z
   ENINI  =  500.0     initial cutoff
   ENAUG  =  322.1 eV  augmentation charge cutoff
   NELM   =     90;   NELMIN=  6; NELMDL= -5     # of ELM steps 
   EDIFF  = 0.1E-07   stopping-criterion for ELM
   LREAL  =      F    real-space projection
   NLSPLINE    = F    spline interpolate recip. space projectors
   LCOMPAT=      F    compatible to vasp.4.4
   GGA_COMPAT  = T    GGA compatible to vasp.4.4-vasp.4.6
   LMAXPAW     = -100 max onsite density
   LMAXMIX     =    2 max onsite mixed and CHGCAR
   VOSKOWN=      0    Vosko Wilk Nusair interpolation
   ROPT   =    0.00000
 Ionic relaxation
   EDIFFG = -.1E-01   stopping-criterion for IOM
   NSW    =      1    number of steps for IOM
   NBLOCK =      1;   KBLOCK =      1    inner block; outer block 
   IBRION =      8    ionic relax: 0-MD 1-quasi-New 2-CG
   NFREE  =      0    steps in history (QN), initial steepest desc. (CG)
   ISIF   =      2    stress and relaxation
   IWAVPR =     11    prediction:  0-non 1-charg 2-wave 3-comb
   ISYM   =      2    0-nonsym 1-usesym 2-fastsym
   LCORR  =      T    Harris-Foulkes like correction to forces

   POTIM  = 0.5000    time-step for ionic-motion
   TEIN   =    0.0    initial temperature
   TEBEG  =    0.0;   TEEND  =   0.0 temperature during run
   SMASS  =  -3.00    Nose mass-parameter (am)
   estimated Nose-frequenzy (Omega)   =  0.10E-29 period in steps =****** mass=  -0.137E-26a.u.
   SCALEE = 1.0000    scale energy and forces
   NPACO  =    256;   APACO  = 16.0  distance and # of slots for P.C.
   PSTRESS=    0.0 pullay stress

  Mass of Ions in am
   POMASS =  28.09
  Ionic Valenz
   ZVAL   =   4.00
  Atomic Wigner-Seitz radii
   RWIGS  =  -1.00
  virtual crystal weights 
   VCA    =   1.00
   NELECT =      64.0000    total number of electrons
   NUPDOWN=      -1.0000    fix difference up-down

 DOS related values:
   EMIN   =  10.00;   EMAX   =-10.00  energy-range for DOS
   EFERMI =   0.00
   ISMEAR =     0;   SIGMA  =   0.05  broadening in eV -4-tet -1-fermi 0-gaus

 Electronic relaxation 2 (details)
   IALGO  =     38    algorithm
   LDIAG  =      T    sub-space diagonalisation (order eigenvalues)
   LSUBROT=      F    optimize rotation matrix (better conditioning)
   TURBO    =      0    0=normal 1=particle mesh
   IRESTART =      0    0=no restart 2=restart with 2 vectors
   NREBOOT  =      0    no. of reboots
   NMIN     =      0    reboot dimension
   EREF     =   0.00    reference energy to select bands
   IMIX   =      4    mixing-type and parameters
     AMIX     =   0.40;   BMIX     =  1.00
     AMIX_MAG =   1.60;   BMIX_MAG =  1.00
     AMIN     =   0.10
     WC   =   100.;   INIMIX=   1;  MIXPRE=   1;  MAXMIX= -45

 Intra band minimization:
   WEIMIN = 0.0010     energy-eigenvalue tresh-hold
   EBREAK =  0.57E-10  absolut break condition
   DEPER  =   0.30     relativ break condition  

   TIME   =   0.40     timestep for ELM

  volume/ion in A,a.u.               =      20.42       137.77
  Fermi-wavevector in a.u.,A,eV,Ry     =   0.950837  1.796821 12.300904  0.904091
  Thomas-Fermi vector in A             =   2.079251
 
 Write flags
   LWAVE        =      F    write WAVECAR
   LDOWNSAMPLE  =      F    k-point downsampling of WAVECAR
   LCHARG       =      F    write CHGCAR
   LVTOT        =      F    write LOCPOT, total local potential
   LVHAR        =      F    write LOCPOT, Hartree potential only
   LELF         =      F    write electronic localiz. function (ELF)
   LORBIT       =      0    0 simple, 1 ext, 2 COOP (PROOUT), +10 PAW based schemes


 Dipole corrections
   LMONO  =      F    monopole corrections only (constant potential shift)
   LDIPOL =      F    correct potential (dipole corrections)
   IDIPOL =      0    1-x, 2-y, 3-z, 4-all directions 
   EPSILON=  1.0000000 bulk dielectric constant

 Exchange correlation treatment:
   GGA     =    PE    GGA type
   LEXCH   =     8    internal setting for exchange type
   VOSKOWN=      0    Vosko Wilk Nusair interpolation
   LHFCALC =     F    Hartree Fock is set to
   LHFONE  =     F    Hartree Fock one center treatment
   AEXX    =    0.0000 exact exchange contribution

 Linear response parameters
   LEPSILON=     F    determine dielectric tensor
   LRPA    =     F    only Hartree local field effects (RPA)
   LNABLA  =     F    use nabla operator in PAW spheres
   LVEL    =     F    velocity operator in full k-point grid
   LINTERFAST=   F  fast interpolation
   KINTER  =     0    interpolate to denser k-point grid
   CSHIFT  =0.1000    complex shift for real part using Kramers Kronig
   OMEGAMAX=  -1.0    maximum frequency
   DEG_THRESHOLD= 0.2000000E-02 threshold for treating states as degnerate
   RTIME   =   -0.100 relaxation time in fs
  (WPLASMAI=    0.000 imaginary part of plasma frequency in eV, 0.658/RTIME)
   DFIELD  = 0.0000000 0.0000000 0.0000000 field for delta impulse in time
 
 Orbital magnetization related:
   ORBITALMAG=     F  switch on orbital magnetization
   LCHIMAG   =     F  perturbation theory with respect to B field
   DQ        =  0.001000  dq finite difference perturbation B field
   LLRAUG    =     F  two centre corrections for induced B field



--------------------------------------------------------------------------------------------------------


 linear response using symmetry
 charge density and potential will be updated during run
 non-spin polarized calculation
 Variant of blocked Davidson
 Davidson routine will perform the subspace rotation
 perform sub-space diagonalisation
    after iterative eigenvector-optimisation
 modified Broyden-mixing scheme, WC =      100.0
 initial mixing is a Kerker type mixing with AMIX =  0.4000 and BMIX =      1.0000
 Hartree-type preconditioning will be used
 using additional bands           12
 reciprocal scheme for non local part
 use partial core corrections
 calculate Harris-corrections to forces 
   (improved forces if not selfconsistent)
 use gradient corrections 
 use of overlap-Matrix (Vanderbilt PP)
 Gauss-broadening in eV      SIGMA  =   0.05


--------------------------------------------------------------------------------------------------------


  energy-cutoff  :      500.00
  volume of cell :      326.65
      direct lattice vectors                 reciprocal lattice vectors
     0.000000000  5.466198844  5.466198844    -0.091471243  0.091471243  0.091471243
     5.466198844  0.000000000  5.466198844     0.091471243 -0.091471243  0.091471243
     5.466198844  5.466198844  0.000000000     0.091471243  0.091471243 -0.091471243

  length of vectors
     7.730372539  7.730372539  7.730372539     0.158432839  0.158432839  0.158432839


 
 k-points in units of 2pi/SCALE and weight: K-Spacing Value to Generate K-Mesh: 0.04
   0.00000000  0.00000000  0.00000000       0.016
  -0.02286781  0.02286781  0.02286781       0.125
  -0.04573562  0.04573562  0.04573562       0.062
   0.00000000  0.00000000  0.04573562       0.094
  -0.02286781  0.02286781  0.06860343       0.375
   0.04573562 -0.04573562  0.00000000       0.188
   0.00000000  0.00000000  0.09147124       0.047
   0.09147124 -0.04573562  0.00000000       0.094
 
 k-points in reciprocal lattice and weights: K-Spacing Value to Generate K-Mesh: 0.04
   0.00000000  0.00000000  0.00000000       0.016
   0.25000000  0.00000000  0.00000000       0.125
   0.50000000  0.00000000  0.00000000       0.062
   0.25000000  0.25000000  0.00000000       0.094
   0.50000000  0.25000000  0.00000000       0.375
  -0.25000000  0.25000000  0.00000000       0.188
   0.50000000  0.50000000  0.00000000       0.047
  -0.25000000  0.50000000  0.25000000       0.094
 
 position of ions in fractional coordinates (direct lattice) 
   0.43750000  0.43750000  0.43750000
   0.93750000  0.43750000  0.43750000
   0.43750000  0.93750000  0.43750000
   0.93750000  0.93750000  0.43750000
   0.43750000  0.43750000  0.93750000
   0.93750000  0.43750000  0.93750000
   0.43750000  0.93750000  0.93750000
   0.93750000  0.93750000  0.93750000
   0.06250000  0.06250000  0.06250000
   0.56250000  0.06250000  0.06250000
   0.06250000  0.56250000  0.06250000
   0.56250000  0.56250000  0.06250000
   0.06250000  0.06250000  0.56250000
   0.56250000  0.06250000  0.56250000
   0.06250000  0.56250000  0.56250000
   0.56250000  0.56250000  0.56250000
 
 position of ions in cartesian coordinates  (Angst):
   4.78292399  4.78292399  4.78292399
   4.78292399  7.51602341  7.51602341
   7.51602341  4.78292399  7.51602341
   7.51602341  7.51602341 10.24912283
   7.51602341  7.51602341  4.78292399
   7.51602341 10.24912283  7.51602341
  10.24912283  7.51602341  7.51602341
  10.24912283 10.24912283 10.24912283
   0.68327486  0.68327486  0.68327486
   0.68327486  3.41637428  3.41637428
   3.41637428  0.68327486  3.41637428
   3.41637428  3.41637428  6.14947370
   3.41637428  3.41637428  0.68327486
   3.41637428  6.14947370  3.41637428
   6.14947370  3.41637428  3.41637428
   6.14947370  6.14947370  6.14947370
 


--------------------------------------------------------------------------------------------------------


 k-point  1 :   0.0000 0.0000 0.0000  plane waves:    8363
 k-point  2 :   0.2500 0.0000 0.0000  plane waves:    8285
 k-point  3 :   0.5000 0.0000 0.0000  plane waves:    8292
 k-point  4 :   0.2500 0.2500 0.0000  plane waves:    8268
 k-point  5 :   0.5000 0.2500 0.0000  plane waves:    8304
 k-point  6 :  -0.2500 0.2500 0.0000  plane waves:    8286
 k-point  7 :   0.5000 0.5000 0.0000  plane waves:    8256
 k-point  8 :  -0.2500 0.5000 0.2500  plane waves:    8372

 maximum and minimum number of plane-waves per node :      8372     8256

 maximum number of plane-waves:      8372
 maximum index in each direction: 
   IXMAX=   14   IYMAX=   14   IZMAX=   14
   IXMIN=  -14   IYMIN=  -14   IZMIN=  -14


 serial   3D FFT for wavefunctions
 parallel 3D FFT for charge:
    minimum data exchange during FFTs selected (reduces bandwidth)


 total amount of memory used by VASP MPI-rank0   124929. kBytes
=======================================================================

   base      :      30000. kBytes
   nonl-proj :       6429. kBytes
   fftplans  :      52349. kBytes
   grid      :      24134. kBytes
   one-center:         49. kBytes
   wavefun   :      11968. kBytes
 
     INWAV:  cpu time    0.0000: real time    0.0000
 Broyden mixing: mesh for mixing (old mesh)
   NGX = 29   NGY = 29   NGZ = 29
  (NGX  =112   NGY  =112   NGZ  =112)
  gives a total of  24389 points

 initial charge density was supplied:
 charge density of overlapping atoms calculated
 number of electron      64.0000000 magnetization 
 keeping initial charge density in first step


--------------------------------------------------------------------------------------------------------


 Maximum index for augmentation-charges        34968 (set IRDMAX)


--------------------------------------------------------------------------------------------------------


 First call to EWALD:  gamma=   0.257
 Maximum number of real-space cells 3x 3x 3
 Maximum number of reciprocal cells 3x 3x 3

    FEWALD:  cpu time    0.0013: real time    0.0013


--------------------------------------- Iteration      1(   1)  ---------------------------------------


    POTLOK:  cpu time    0.1185: real time    0.1190
    SETDIJ:  cpu time    0.0870: real time    0.0874
     EDDAV:  cpu time    1.3382: real time    1.3438
       DOS:  cpu time    0.0005: real time    0.0005
    --------------------------------------------
      LOOP:  cpu time    1.5442: real time    1.5507

 eigenvalue-minimisations  :   704
 total energy-change (2. order) : 0.1509218E+03  (-0.2358358E+04)
 number of electron      64.0000000 magnetization 
 augmentation part       64.0000000 magnetization 

 Free energy of the ion-electron system (eV)
  ---------------------------------------------------
  alpha Z        PSCENC =        26.38202918
  Ewald energy   TEWEN  =     -1816.39940288
  -Hartree energ DENC   =       -90.41814755
  -exchange      EXHF   =         0.00000000
  -V(xc)+E(xc)   XCENC  =      -149.43832252
  PAW double counting   =      1409.98079384    -1128.48828464
  entropy T*S    EENTRO =        -0.01005493
  eigenvalues    EBANDS =       250.25311129
  atomic energy  EATOM  =      1649.06010750
  Solvation  Ediel_sol  =         0.00000000
  ---------------------------------------------------
  free energy    TOTEN  =       150.92182929 eV

  energy without entropy =      150.93188422  energy(sigma->0) =      150.92685676


--------------------------------------------------------------------------------------------------------




--------------------------------------- Iteration      1(   2)  ---------------------------------------


     EDDAV:  cpu time    1.5729: real time    1.5793
       DOS:  cpu time    0.0003: real time    0.0003
    --------------------------------------------
      LOOP:  cpu time    1.5733: real time    1.5797

 eigenvalue-minimisations  :   876
 total energy-change (2. order) :-0.2253881E+03  (-0.2102486E+03)
 number of electron      64.0000000 magnetization 
 augmentation part       64.0000000 magnetization 

 Free energy of the ion-electron system (eV)
  ---------------------------------------------------
  alpha Z        PSCENC =        26.38202918
  Ewald energy   TEWEN  =     -1816.39940288
  -Hartree energ DENC   =       -90.41814755
  -exchange      EXHF   =         0.00000000
  -V(xc)+E(xc)   XCENC  =      -149.43832252
  PAW double counting   =      1409.98079384    -1128.48828464
  entropy T*S    EENTRO =        -0.00000908
  eigenvalues    EBANDS =        24.85496786
  atomic energy  EATOM  =      1649.06010750
  Solvation  Ediel_sol  =         0.00000000
  ---------------------------------------------------
  free energy    TOTEN  =       -74.46626828 eV

  energy without entropy =      -74.46625921  energy(sigma->0) =      -74.46626374


--------------------------------------------------------------------------------------------------------




--------------------------------------- Iteration      1(   3)  ---------------------------------------


     EDDAV:  cpu time    1.6458: real time    1.6522
       DOS:  cpu time    0.0002: real time    0.0002
    --------------------------------------------
      LOOP:  cpu time    1.6460: real time    1.6525

 eigenvalue-minimisations  :   928
 total energy-change (2. order) :-0.1338467E+02  (-0.1317246E+02)
 number of electron      64.0000000 magnetization 
 augmentation part       64.0000000 magnetization 

 Free energy of the ion-electron system (eV)
  ---------------------------------------------------
  alpha Z        PSCENC =        26.38202918
  Ewald energy   TEWEN  =     -1816.39940288
  -Hartree energ DENC   =       -90.41814755
  -exchange      EXHF   =         0.00000000
  -V(xc)+E(xc)   XCENC  =      -149.43832252
  PAW double counting   =      1409.98079384    -1128.48828464
  entropy T*S    EENTRO =        -0.00000000
  eigenvalues    EBANDS =        11.47028451
  atomic energy  EATOM  =      1649.06010750
  Solvation  Ediel_sol  =         0.00000000
  ---------------------------------------------------
  free energy    TOTEN  =       -87.85094255 eV

  energy without entropy =      -87.85094255  energy(sigma->0) =      -87.85094255


--------------------------------------------------------------------------------------------------------




--------------------------------------- Iteration      1(   4)  ---------------------------------------


     EDDAV:  cpu time    1.5579: real time    1.5642
       DOS:  cpu time    0.0002: real time    0.0002
    --------------------------------------------
      LOOP:  cpu time    1.5581: real time    1.5644

 eigenvalue-minimisations  :   876
 total energy-change (2. order) :-0.2660350E+00  (-0.2651804E+00)
 number of electron      64.0000000 magnetization 
 augmentation part       64.0000000 magnetization 

 Free energy of the ion-electron system (eV)
  ---------------------------------------------------
  alpha Z        PSCENC =        26.38202918
  Ewald energy   TEWEN  =     -1816.39940288
  -Hartree energ DENC   =       -90.41814755
  -exchange      EXHF   =         0.00000000
  -V(xc)+E(xc)   XCENC  =      -149.43832252
  PAW double counting   =      1409.98079384    -1128.48828464
  entropy T*S    EENTRO =        -0.00000000
  eigenvalues    EBANDS =        11.20424954
  atomic energy  EATOM  =      1649.06010750
  Solvation  Ediel_sol  =         0.00000000
  ---------------------------------------------------
  free energy    TOTEN  =       -88.11697752 eV

  energy without entropy =      -88.11697752  energy(sigma->0) =      -88.11697752


--------------------------------------------------------------------------------------------------------




--------------------------------------- Iteration      1(   5)  ---------------------------------------


     EDDAV:  cpu time    1.5388: real time    1.5448
       DOS:  cpu time    0.0002: real time    0.0002
    CHARGE:  cpu time    0.1818: real time    0.1825
    MIXING:  cpu time    0.0035: real time    0.0036
    --------------------------------------------
      LOOP:  cpu time    1.7243: real time    1.7311

 eigenvalue-minimisations  :   884
 total energy-change (2. order) :-0.8234214E-02  (-0.8223926E-02)
 number of electron      64.0000000 magnetization 
 augmentation part       -3.7559571 magnetization 

 Broyden mixing:
  rms(total) = 0.13485E+01    rms(broyden)= 0.13485E+01
  rms(prec ) = 0.17626E+01
  weight for this iteration     100.00

 Free energy of the ion-electron system (eV)
  ---------------------------------------------------
  alpha Z        PSCENC =        26.38202918
  Ewald energy   TEWEN  =     -1816.39940288
  -Hartree energ DENC   =       -90.41814755
  -exchange      EXHF   =         0.00000000
  -V(xc)+E(xc)   XCENC  =      -149.43832252
  PAW double counting   =      1409.98079384    -1128.48828464
  entropy T*S    EENTRO =        -0.00000000
  eigenvalues    EBANDS =        11.19601533
  atomic energy  EATOM  =      1649.06010750
  Solvation  Ediel_sol  =         0.00000000
  ---------------------------------------------------
  free energy    TOTEN  =       -88.12521174 eV

  energy without entropy =      -88.12521174  energy(sigma->0) =      -88.12521174


--------------------------------------------------------------------------------------------------------




--------------------------------------- Iteration      1(   6)  ---------------------------------------


    POTLOK:  cpu time    0.1132: real time    0.1138
    SETDIJ:  cpu time    0.0844: real time    0.0847
     EDDAV:  cpu time    1.4404: real time    1.4464
       DOS:  cpu time    0.0002: real time    0.0002
    CHARGE:  cpu time    0.1828: real time    0.1835
    MIXING:  cpu time    0.0041: real time    0.0041
    --------------------------------------------
      LOOP:  cpu time    1.8252: real time    1.8327

 eigenvalue-minimisations  :   792
 total energy-change (2. order) : 0.9360558E+00  (-0.4985042E-01)
 number of electron      64.0000000 magnetization 
 augmentation part       -3.7129140 magnetization 

 Broyden mixing:
  rms(total) = 0.82532E+00    rms(broyden)= 0.82532E+00
  rms(prec ) = 0.10644E+01
  weight for this iteration     100.00

 eigenvalues of (default mixing * dielectric matrix)
  average eigenvalue GAMMA=   2.5696
  2.5696

 Free energy of the ion-electron system (eV)
  ---------------------------------------------------
  alpha Z        PSCENC =        26.38202918
  Ewald energy   TEWEN  =     -1816.39940288
  -Hartree energ DENC   =      -102.16937165
  -exchange      EXHF   =         0.00000000
  -V(xc)+E(xc)   XCENC  =      -147.59075449
  PAW double counting   =      2977.14988467    -2696.48285076
  entropy T*S    EENTRO =        -0.00000000
  eigenvalues    EBANDS =        22.86120250
  atomic energy  EATOM  =      1649.06010750
  Solvation  Ediel_sol  =         0.00000000
  ---------------------------------------------------
  free energy    TOTEN  =       -87.18915593 eV

  energy without entropy =      -87.18915593  energy(sigma->0) =      -87.18915593


--------------------------------------------------------------------------------------------------------




--------------------------------------- Iteration      1(   7)  ---------------------------------------


    POTLOK:  cpu time    0.1155: real time    0.1160
    SETDIJ:  cpu time    0.0868: real time    0.0871
     EDDAV:  cpu time    1.4497: real time    1.4552
       DOS:  cpu time    0.0002: real time    0.0002
    CHARGE:  cpu time    0.1765: real time    0.1771
    MIXING:  cpu time    0.0037: real time    0.0038
    --------------------------------------------
      LOOP:  cpu time    1.8325: real time    1.8394

 eigenvalue-minimisations  :   792
 total energy-change (2. order) : 0.4315467E+00  (-0.1069362E+00)
 number of electron      64.0000000 magnetization 
 augmentation part       -3.6560506 magnetization 

 Broyden mixing:
  rms(total) = 0.47104E-01    rms(broyden)= 0.47104E-01
  rms(prec ) = 0.73019E-01
  weight for this iteration     100.00

 eigenvalues of (default mixing * dielectric matrix)
  average eigenvalue GAMMA=   2.2589
  2.2589  2.2589

 Free energy of the ion-electron system (eV)
  ---------------------------------------------------
  alpha Z        PSCENC =        26.38202918
  Ewald energy   TEWEN  =     -1816.39940288
  -Hartree energ DENC   =      -121.98826801
  -exchange      EXHF   =         0.00000000
  -V(xc)+E(xc)   XCENC  =      -144.40754035
  PAW double counting   =      6800.41658276    -6520.83710663
  entropy T*S    EENTRO =        -0.00000000
  eigenvalues    EBANDS =        41.01598922
  atomic energy  EATOM  =      1649.06010750
  Solvation  Ediel_sol  =         0.00000000
  ---------------------------------------------------
  free energy    TOTEN  =       -86.75760922 eV

  energy without entropy =      -86.75760922  energy(sigma->0) =      -86.75760922


--------------------------------------------------------------------------------------------------------




--------------------------------------- Iteration      1(   8)  ---------------------------------------


    POTLOK:  cpu time    0.1114: real time    0.1119
    SETDIJ:  cpu time    0.0843: real time    0.0846
     EDDAV:  cpu time    1.4738: real time    1.4800
       DOS:  cpu time    0.0002: real time    0.0002
    CHARGE:  cpu time    0.1758: real time    0.1764
    MIXING:  cpu time    0.0051: real time    0.0052
    --------------------------------------------
      LOOP:  cpu time    1.8507: real time    1.8583

 eigenvalue-minimisations  :   820
 total energy-change (2. order) :-0.8895072E-02  (-0.6018870E-02)
 number of electron      64.0000000 magnetization 
 augmentation part       -3.6642459 magnetization 

 Broyden mixing:
  rms(total) = 0.17497E-01    rms(broyden)= 0.17497E-01
  rms(prec ) = 0.25655E-01
  weight for this iteration     100.00

 eigenvalues of (default mixing * dielectric matrix)
  average eigenvalue GAMMA=   2.2799
  2.7568  2.0414  2.0414

 Free energy of the ion-electron system (eV)
  ---------------------------------------------------
  alpha Z        PSCENC =        26.38202918
  Ewald energy   TEWEN  =     -1816.39940288
  -Hartree energ DENC   =      -120.74660101
  -exchange      EXHF   =         0.00000000
  -V(xc)+E(xc)   XCENC  =      -144.51491306
  PAW double counting   =      6718.39157519    -6438.55872301
  entropy T*S    EENTRO =        -0.00000000
  eigenvalues    EBANDS =        39.61942380
  atomic energy  EATOM  =      1649.06010750
  Solvation  Ediel_sol  =         0.00000000
  ---------------------------------------------------
  free energy    TOTEN  =       -86.76650429 eV

  energy without entropy =      -86.76650429  energy(sigma->0) =      -86.76650429


--------------------------------------------------------------------------------------------------------




--------------------------------------- Iteration      1(   9)  ---------------------------------------


    POTLOK:  cpu time    0.1185: real time    0.1190
    SETDIJ:  cpu time    0.0861: real time    0.0865
     EDDAV:  cpu time    1.5496: real time    1.5556
       DOS:  cpu time    0.0002: real time    0.0002
    CHARGE:  cpu time    0.1796: real time    0.1802
    MIXING:  cpu time    0.0043: real time    0.0043
    --------------------------------------------
      LOOP:  cpu time    1.9383: real time    1.9460

 eigenvalue-minimisations  :   880
 total energy-change (2. order) :-0.1490754E-02  (-0.2476008E-03)
 number of electron      64.0000000 magnetization 
 augmentation part       -3.6643811 magnetization 

 Broyden mixing:
  rms(total) = 0.16467E-01    rms(broyden)= 0.16467E-01
  rms(prec ) = 0.18183E-01
  weight for this iteration     100.00

 eigenvalues of (default mixing * dielectric matrix)
  average eigenvalue GAMMA=   2.4936
  4.1767  1.0423  2.1452  2.6103

 Free energy of the ion-electron system (eV)
  ---------------------------------------------------
  alpha Z        PSCENC =        26.38202918
  Ewald energy   TEWEN  =     -1816.39940288
  -Hartree energ DENC   =      -121.28707060
  -exchange      EXHF   =         0.00000000
  -V(xc)+E(xc)   XCENC  =      -144.42679107
  PAW double counting   =      6750.44116415    -6470.62230154
  entropy T*S    EENTRO =        -0.00000000
  eigenvalues    EBANDS =        40.08427021
  atomic energy  EATOM  =      1649.06010750
  Solvation  Ediel_sol  =         0.00000000
  ---------------------------------------------------
  free energy    TOTEN  =       -86.76799504 eV

  energy without entropy =      -86.76799504  energy(sigma->0) =      -86.76799504


--------------------------------------------------------------------------------------------------------




--------------------------------------- Iteration      1(  10)  ---------------------------------------


    POTLOK:  cpu time    0.1118: real time    0.1123
    SETDIJ:  cpu time    0.0852: real time    0.0855
     EDDAV:  cpu time    1.4292: real time    1.4346
       DOS:  cpu time    0.0002: real time    0.0002
    CHARGE:  cpu time    0.1791: real time    0.1799
    MIXING:  cpu time    0.0040: real time    0.0041
    --------------------------------------------
      LOOP:  cpu time    1.8095: real time    1.8165

 eigenvalue-minimisations  :   784
 total energy-change (2. order) :-0.5076655E-03  (-0.1204177E-03)
 number of electron      64.0000000 magnetization 
 augmentation part       -3.6648793 magnetization 

 Broyden mixing:
  rms(total) = 0.87594E-02    rms(broyden)= 0.87594E-02
  rms(prec ) = 0.89922E-02
  weight for this iteration     100.00

 eigenvalues of (default mixing * dielectric matrix)
  average eigenvalue GAMMA=   1.9113
  3.0069  2.2900  2.2286  1.0155  1.0155

 Free energy of the ion-electron system (eV)
  ---------------------------------------------------
  alpha Z        PSCENC =        26.38202918
  Ewald energy   TEWEN  =     -1816.39940288
  -Hartree energ DENC   =      -121.31598945
  -exchange      EXHF   =         0.00000000
  -V(xc)+E(xc)   XCENC  =      -144.42335393
  PAW double counting   =      6616.83895836    -6337.00222566
  entropy T*S    EENTRO =        -0.00000000
  eigenvalues    EBANDS =        40.09137417
  atomic energy  EATOM  =      1649.06010750
  Solvation  Ediel_sol  =         0.00000000
  ---------------------------------------------------
  free energy    TOTEN  =       -86.76850271 eV

  energy without entropy =      -86.76850271  energy(sigma->0) =      -86.76850271


--------------------------------------------------------------------------------------------------------




--------------------------------------- Iteration      1(  11)  ---------------------------------------


    POTLOK:  cpu time    0.1116: real time    0.1121
    SETDIJ:  cpu time    0.0857: real time    0.0860
     EDDAV:  cpu time    1.5151: real time    1.5209
       DOS:  cpu time    0.0002: real time    0.0002
    CHARGE:  cpu time    0.1744: real time    0.1750
    MIXING:  cpu time    0.0051: real time    0.0051
    --------------------------------------------
      LOOP:  cpu time    1.8922: real time    1.8994

 eigenvalue-minimisations  :   836
 total energy-change (2. order) :-0.6791563E-05  (-0.3646880E-05)
 number of electron      64.0000000 magnetization 
 augmentation part       -3.6650128 magnetization 

 Broyden mixing:
  rms(total) = 0.51515E-03    rms(broyden)= 0.51513E-03
  rms(prec ) = 0.68338E-03
  weight for this iteration     100.00

 eigenvalues of (default mixing * dielectric matrix)
  average eigenvalue GAMMA=   2.0802
  2.9157  2.8337  2.8337  2.0441  1.0101  0.8437

 Free energy of the ion-electron system (eV)
  ---------------------------------------------------
  alpha Z        PSCENC =        26.38202918
  Ewald energy   TEWEN  =     -1816.39940288
  -Hartree energ DENC   =      -121.32868270
  -exchange      EXHF   =         0.00000000
  -V(xc)+E(xc)   XCENC  =      -144.41939154
  PAW double counting   =      6661.08554618    -6381.24872967
  entropy T*S    EENTRO =        -0.00000000
  eigenvalues    EBANDS =        40.10001443
  atomic energy  EATOM  =      1649.06010750
  Solvation  Ediel_sol  =         0.00000000
  ---------------------------------------------------
  free energy    TOTEN  =       -86.76850950 eV

  energy without entropy =      -86.76850950  energy(sigma->0) =      -86.76850950


--------------------------------------------------------------------------------------------------------




--------------------------------------- Iteration      1(  12)  ---------------------------------------


    POTLOK:  cpu time    0.1096: real time    0.1101
    SETDIJ:  cpu time    0.0849: real time    0.0852
     EDDAV:  cpu time    1.5117: real time    1.5174
       DOS:  cpu time    0.0002: real time    0.0002
    CHARGE:  cpu time    0.1831: real time    0.1837
    MIXING:  cpu time    0.0047: real time    0.0047
    --------------------------------------------
      LOOP:  cpu time    1.8943: real time    1.9014

 eigenvalue-minimisations  :   848
 total energy-change (2. order) :-0.3645300E-05  (-0.4086949E-06)
 number of electron      64.0000000 magnetization 
 augmentation part       -3.6649091 magnetization 

 Broyden mixing:
  rms(total) = 0.61198E-03    rms(broyden)= 0.61196E-03
  rms(prec ) = 0.75468E-03
  weight for this iteration     100.00

 eigenvalues of (default mixing * dielectric matrix)
  average eigenvalue GAMMA=   1.9051
  3.2507  2.6293  2.5515  2.2064  0.9834  0.8571  0.8571

 Free energy of the ion-electron system (eV)
  ---------------------------------------------------
  alpha Z        PSCENC =        26.38202918
  Ewald energy   TEWEN  =     -1816.39940288
  -Hartree energ DENC   =      -121.34980771
  -exchange      EXHF   =         0.00000000
  -V(xc)+E(xc)   XCENC  =      -144.41832500
  PAW double counting   =      6665.12855869    -6385.29228956
  entropy T*S    EENTRO =        -0.00000000
  eigenvalues    EBANDS =        40.12061665
  atomic energy  EATOM  =      1649.06010750
  Solvation  Ediel_sol  =         0.00000000
  ---------------------------------------------------
  free energy    TOTEN  =       -86.76851315 eV

  energy without entropy =      -86.76851315  energy(sigma->0) =      -86.76851315


--------------------------------------------------------------------------------------------------------




--------------------------------------- Iteration      1(  13)  ---------------------------------------


    POTLOK:  cpu time    0.1163: real time    0.1168
    SETDIJ:  cpu time    0.0845: real time    0.0848
     EDDAV:  cpu time    1.4907: real time    1.4964
       DOS:  cpu time    0.0002: real time    0.0002
    CHARGE:  cpu time    0.1786: real time    0.1793
    MIXING:  cpu time    0.0046: real time    0.0046
    --------------------------------------------
      LOOP:  cpu time    1.8750: real time    1.8822

 eigenvalue-minimisations  :   820
 total energy-change (2. order) : 0.1678552E-05  (-0.8783400E-07)
 number of electron      64.0000000 magnetization 
 augmentation part       -3.6649505 magnetization 

 Broyden mixing:
  rms(total) = 0.64265E-04    rms(broyden)= 0.64106E-04
  rms(prec ) = 0.69683E-04
  weight for this iteration     100.00

 eigenvalues of (default mixing * dielectric matrix)
  average eigenvalue GAMMA=   2.0218
  3.1829  2.6683  2.6683  2.6523  2.1712  0.9934  0.9594  0.8788

 Free energy of the ion-electron system (eV)
  ---------------------------------------------------
  alpha Z        PSCENC =        26.38202918
  Ewald energy   TEWEN  =     -1816.39940288
  -Hartree energ DENC   =      -121.33928416
  -exchange      EXHF   =         0.00000000
  -V(xc)+E(xc)   XCENC  =      -144.41990030
  PAW double counting   =      6661.87319598    -6382.03575487
  entropy T*S    EENTRO =        -0.00000000
  eigenvalues    EBANDS =        40.11049809
  atomic energy  EATOM  =      1649.06010750
  Solvation  Ediel_sol  =         0.00000000
  ---------------------------------------------------
  free energy    TOTEN  =       -86.76851147 eV

  energy without entropy =      -86.76851147  energy(sigma->0) =      -86.76851147


--------------------------------------------------------------------------------------------------------




--------------------------------------- Iteration      1(  14)  ---------------------------------------


    POTLOK:  cpu time    0.1119: real time    0.1124
    SETDIJ:  cpu time    0.0854: real time    0.0857
     EDDAV:  cpu time    1.2497: real time    1.2544
       DOS:  cpu time    0.0002: real time    0.0002
    CHARGE:  cpu time    0.1776: real time    0.1781
    MIXING:  cpu time    0.0046: real time    0.0046
    --------------------------------------------
      LOOP:  cpu time    1.6294: real time    1.6355

 eigenvalue-minimisations  :   640
 total energy-change (2. order) : 0.2168417E-07  (-0.1754934E-08)
 number of electron      64.0000000 magnetization 
 augmentation part       -3.6649587 magnetization 

 Broyden mixing:
  rms(total) = 0.67137E-04    rms(broyden)= 0.66985E-04
  rms(prec ) = 0.67570E-04
  weight for this iteration     100.00

 eigenvalues of (default mixing * dielectric matrix)
  average eigenvalue GAMMA=   1.9534
  3.3199  2.9165  2.5586  2.5586  2.2473  0.8878  1.0353  1.0353  1.0217

 Free energy of the ion-electron system (eV)
  ---------------------------------------------------
  alpha Z        PSCENC =        26.38202918
  Ewald energy   TEWEN  =     -1816.39940288
  -Hartree energ DENC   =      -121.33862133
  -exchange      EXHF   =         0.00000000
  -V(xc)+E(xc)   XCENC  =      -144.41994916
  PAW double counting   =      6661.82981101    -6381.99238893
  entropy T*S    EENTRO =        -0.00000000
  eigenvalues    EBANDS =        40.10990317
  atomic energy  EATOM  =      1649.06010750
  Solvation  Ediel_sol  =         0.00000000
  ---------------------------------------------------
  free energy    TOTEN  =       -86.76851145 eV

  energy without entropy =      -86.76851145  energy(sigma->0) =      -86.76851145


--------------------------------------------------------------------------------------------------------




--------------------------------------- Iteration      1(  15)  ---------------------------------------


    POTLOK:  cpu time    0.1095: real time    0.1100
    SETDIJ:  cpu time    0.0835: real time    0.0838
     EDDAV:  cpu time    1.0441: real time    1.0480
       DOS:  cpu time    0.0002: real time    0.0002
    CHARGE:  cpu time    0.1755: real time    0.1761
    MIXING:  cpu time    0.0048: real time    0.0048
    --------------------------------------------
      LOOP:  cpu time    1.4176: real time    1.4229

 eigenvalue-minimisations  :   488
 total energy-change (2. order) :-0.3249897E-07  (-0.1610689E-09)
 number of electron      64.0000000 magnetization 
 augmentation part       -3.6649584 magnetization 

 Broyden mixing:
  rms(total) = 0.21006E-04    rms(broyden)= 0.20516E-04
  rms(prec ) = 0.20753E-04
  weight for this iteration     100.00

 eigenvalues of (default mixing * dielectric matrix)
  average eigenvalue GAMMA=   1.8918
  3.2533  2.6942  2.6740  2.6740  2.1673  0.9974  0.8901  0.9462  1.3107  1.3107

 Free energy of the ion-electron system (eV)
  ---------------------------------------------------
  alpha Z        PSCENC =        26.38202918
  Ewald energy   TEWEN  =     -1816.39940288
  -Hartree energ DENC   =      -121.33859766
  -exchange      EXHF   =         0.00000000
  -V(xc)+E(xc)   XCENC  =      -144.41996208
  PAW double counting   =      6661.60384217    -6381.76645999
  entropy T*S    EENTRO =        -0.00000000
  eigenvalues    EBANDS =        40.10993229
  atomic energy  EATOM  =      1649.06010750
  Solvation  Ediel_sol  =         0.00000000
  ---------------------------------------------------
  free energy    TOTEN  =       -86.76851148 eV

  energy without entropy =      -86.76851148  energy(sigma->0) =      -86.76851148


--------------------------------------------------------------------------------------------------------




--------------------------------------- Iteration      1(  16)  ---------------------------------------


    POTLOK:  cpu time    0.1109: real time    0.1114
    SETDIJ:  cpu time    0.0838: real time    0.0841
     EDDAV:  cpu time    1.0177: real time    1.0215
       DOS:  cpu time    0.0002: real time    0.0002
    CHARGE:  cpu time    0.1766: real time    0.1772
    MIXING:  cpu time    0.0052: real time    0.0052
    --------------------------------------------
      LOOP:  cpu time    1.3944: real time    1.3996

 eigenvalue-minimisations  :   452
 total energy-change (2. order) : 0.2307934E-07  (-0.4252730E-10)
 number of electron      64.0000000 magnetization 
 augmentation part       -3.6649591 magnetization 

 Broyden mixing:
  rms(total) = 0.65813E-05    rms(broyden)= 0.47898E-05
  rms(prec ) = 0.51038E-05
  weight for this iteration     100.00
  WARNING: grid for Broyden might be to small

 eigenvalues of (default mixing * dielectric matrix)
  average eigenvalue GAMMA=   1.8496
  3.2707  2.7630  2.7016  2.5462  2.1004  2.1004  1.1604  0.9971  0.8895  0.8895
  0.9266

 Free energy of the ion-electron system (eV)
  ---------------------------------------------------
  alpha Z        PSCENC =        26.38202918
  Ewald energy   TEWEN  =     -1816.39940288
  -Hartree energ DENC   =      -121.33847839
  -exchange      EXHF   =         0.00000000
  -V(xc)+E(xc)   XCENC  =      -144.41998055
  PAW double counting   =      6661.51359230    -6381.67619725
  entropy T*S    EENTRO =        -0.00000000
  eigenvalues    EBANDS =        40.10981864
  atomic energy  EATOM  =      1649.06010750
  Solvation  Ediel_sol  =         0.00000000
  ---------------------------------------------------
  free energy    TOTEN  =       -86.76851146 eV

  energy without entropy =      -86.76851146  energy(sigma->0) =      -86.76851146


--------------------------------------------------------------------------------------------------------




--------------------------------------- Iteration      1(  17)  ---------------------------------------


    POTLOK:  cpu time    0.1116: real time    0.1120
    SETDIJ:  cpu time    0.0852: real time    0.0855
     EDDAV:  cpu time    1.0092: real time    1.0130
       DOS:  cpu time    0.0002: real time    0.0002
    --------------------------------------------
      LOOP:  cpu time    1.2061: real time    1.2106

 eigenvalue-minimisations  :   448
 total energy-change (2. order) :-0.2400157E-08  (-0.1307133E-10)
 number of electron      64.0000000 magnetization 
 augmentation part       -3.6649591 magnetization 

 Free energy of the ion-electron system (eV)
  ---------------------------------------------------
  alpha Z        PSCENC =        26.38202918
  Ewald energy   TEWEN  =     -1816.39940288
  -Hartree energ DENC   =      -121.33852838
  -exchange      EXHF   =         0.00000000
  -V(xc)+E(xc)   XCENC  =      -144.41997717
  PAW double counting   =      6661.50489471    -6381.66750112
  entropy T*S    EENTRO =        -0.00000000
  eigenvalues    EBANDS =        40.10986670
  atomic energy  EATOM  =      1649.06010750
  Solvation  Ediel_sol  =         0.00000000
  ---------------------------------------------------
  free energy    TOTEN  =       -86.76851146 eV

  energy without entropy =      -86.76851146  energy(sigma->0) =      -86.76851146


--------------------------------------------------------------------------------------------------------




 average (electrostatic) potential at core
  the test charge radii are     0.9892
  (the norm of the test charge is              1.0000)
       1 -83.4650       2 -83.4650       3 -83.4650       4 -83.4650       5 -83.4650
       6 -83.4650       7 -83.4650       8 -83.4650       9 -83.4650      10 -83.4650
      11 -83.4650      12 -83.4650      13 -83.4650      14 -83.4650      15 -83.4650
      16 -83.4650
 
 
 
 E-fermi :   5.8688     XC(G=0):  -9.3317     alpha+bet :-11.7480


 k-point     1 :       0.0000    0.0000    0.0000
  band No.  band energies     occupation 
      1      -6.1930      2.00000
      2      -3.9107      2.00000
      3      -3.9107      2.00000
      4      -3.9107      2.00000
      5      -3.9107      2.00000
      6      -2.1194      2.00000
      7      -2.1194      2.00000
      8      -2.1194      2.00000
      9      -2.1194      2.00000
     10      -2.1194      2.00000
     11      -2.1194      2.00000
     12      -1.2439      2.00000
     13      -1.2439      2.00000
     14      -1.2439      2.00000
     15      -1.2439      2.00000
     16       2.8334      2.00000
     17       2.8334      2.00000
     18       2.8334      2.00000
     19       2.8334      2.00000
     20       2.8334      2.00000
     21       2.8334      2.00000
     22       4.4516      2.00000
     23       4.4516      2.00000
     24       4.4516      2.00000
     25       4.4516      2.00000
     26       4.4516      2.00000
     27       4.4516      2.00000
     28       4.4516      2.00000
     29       4.4516      2.00000
     30       5.6313      2.00000
     31       5.6313      2.00000
     32       5.6313      2.00000
     33       6.3798      0.00000
     34       6.3798      0.00000
     35       6.3798      0.00000
     36       6.3798      0.00000
     37       6.3798      0.00000
     38       6.3798      0.00000
     39       7.1027      0.00000
     40       7.1027      0.00000
     41       7.1027      0.00000
     42       7.1027      0.00000
     43       8.1882      0.00000
     44       8.1882      0.00000

 k-point     2 :       0.2500    0.0000    0.0000
  band No.  band energies     occupation 
      1      -5.9923      2.00000
      2      -4.5313      2.00000
      3      -3.8238      2.00000
      4      -3.8238      2.00000
      5      -3.8238      2.00000
      6      -2.9585      2.00000
      7      -2.9585      2.00000
      8      -2.9585      2.00000
      9      -1.1505      2.00000
     10      -1.1505      2.00000
     11      -1.1505      2.00000
     12      -1.0325      2.00000
     13      -1.0325      2.00000
     14      -1.0325      2.00000
     15      -0.2442      2.00000
     16       2.2680      2.00000
     17       2.2680      2.00000
     18       2.2680      2.00000
     19       2.9999      2.00000
     20       2.9999      2.00000
     21       2.9999      2.00000
     22       3.3836      2.00000
     23       3.3836      2.00000
     24       3.3836      2.00000
     25       4.0402      2.00000
     26       4.0976      2.00000
     27       4.0976      2.00000
     28       4.0976      2.00000
     29       4.5623      2.00000
     30       4.5623      2.00000
     31       5.3485      2.00000
     32       5.3485      2.00000
     33       6.5596      0.00000
     34       6.5596      0.00000
     35       6.5596      0.00000
     36       7.2309      0.00000
     37       7.6150      0.00000
     38       7.6150      0.00000
     39       7.6150      0.00000
     40       7.7966      0.00000
     41       7.7966      0.00000
     42       7.7966      0.00000
     43       8.0785      0.00000
     44       8.6043      0.00000

 k-point     3 :       0.5000    0.0000    0.0000
  band No.  band energies     occupation 
      1      -5.4071      2.00000
      2      -5.4071      2.00000
      3      -3.5254      2.00000
      4      -3.5254      2.00000
      5      -3.5254      2.00000
      6      -3.5254      2.00000
      7      -3.5254      2.00000
      8      -3.5254      2.00000
      9      -0.6959      2.00000
     10      -0.6959      2.00000
     11      -0.6959      2.00000
     12      -0.6959      2.00000
     13      -0.6959      2.00000
     14      -0.6959      2.00000
     15       1.7425      2.00000
     16       1.7425      2.00000
     17       2.1641      2.00000
     18       2.1641      2.00000
     19       2.1641      2.00000
     20       2.1641      2.00000
     21       2.1641      2.00000
     22       2.1641      2.00000
     23       3.4687      2.00000
     24       3.4687      2.00000
     25       3.4687      2.00000
     26       3.4687      2.00000
     27       3.4687      2.00000
     28       3.4687      2.00000
     29       4.8853      2.00000
     30       4.8853      2.00000
     31       4.8853      2.00000
     32       4.8853      2.00000
     33       7.1715      0.00000
     34       7.1715      0.00000
     35       7.1715      0.00000
     36       7.1715      0.00000
     37       7.1715      0.00000
     38       7.1715      0.00000
     39       7.5954      0.00000
     40       7.5954      0.00000
     41       9.1222      0.00000
     42       9.1222      0.00000
     43       9.1222      0.00000
     44       9.1222      0.00000

 k-point     4 :       0.2500    0.2500    0.0000
  band No.  band energies     occupation 
      1      -5.9246      2.00000
      2      -4.0616      2.00000
      3      -4.0616      2.00000
      4      -4.0616      2.00000
      5      -4.0616      2.00000
      6      -3.8390      2.00000
      7      -2.0453      2.00000
      8      -2.0453      2.00000
      9      -2.0453      2.00000
     10      -2.0453      2.00000
     11      -0.6707      2.00000
     12      -0.6707      2.00000
     13      -0.6707      2.00000
     14      -0.6707      2.00000
     15      -0.0827      2.00000
     16       2.2870      2.00000
     17       2.2870      2.00000
     18       2.2870      2.00000
     19       2.2870      2.00000
     20       3.0751      2.00000
     21       3.0751      2.00000
     22       3.2080      2.00000
     23       3.2080      2.00000
     24       3.2080      2.00000
     25       3.2080      2.00000
     26       4.2806      2.00000
     27       4.3873      2.00000
     28       4.3873      2.00000
     29       4.3873      2.00000
     30       4.3873      2.00000
     31       4.8435      2.00000
     32       4.8435      2.00000
     33       6.2792      0.00000
     34       7.2045      0.00000
     35       7.6161      0.00000
     36       7.6161      0.00000
     37       7.6161      0.00000
     38       7.6161      0.00000
     39       7.6464      0.00000
     40       7.9472      0.00000
     41       7.9472      0.00000
     42       7.9472      0.00000
     43       7.9472      0.00000
     44       9.2407      0.00000

 k-point     5 :       0.5000    0.2500    0.0000
  band No.  band energies     occupation 
      1      -5.4639      2.00000
      2      -4.9647      2.00000
      3      -4.4317      2.00000
      4      -4.0157      2.00000
      5      -4.0157      2.00000
      6      -3.3277      2.00000
      7      -2.7903      2.00000
      8      -2.7903      2.00000
      9      -1.2481      2.00000
     10      -1.2481      2.00000
     11      -0.9464      2.00000
     12      -0.1598      2.00000
     13      -0.1598      2.00000
     14       0.7147      2.00000
     15       1.0473      2.00000
     16       1.6571      2.00000
     17       1.6571      2.00000
     18       1.7159      2.00000
     19       2.3710      2.00000
     20       2.3710      2.00000
     21       2.4246      2.00000
     22       2.7349      2.00000
     23       2.7349      2.00000
     24       3.0131      2.00000
     25       3.3620      2.00000
     26       3.4666      2.00000
     27       3.7410      2.00000
     28       3.7410      2.00000
     29       3.7804      2.00000
     30       4.3405      2.00000
     31       4.4050      2.00000
     32       4.8692      2.00000
     33       7.0008      0.00000
     34       7.4863      0.00000
     35       7.7764      0.00000
     36       8.0259      0.00000
     37       8.0259      0.00000
     38       8.2915      0.00000
     39       8.4966      0.00000
     40       8.4966      0.00000
     41       8.5336      0.00000
     42       9.1627      0.00000
     43       9.1632      0.00000
     44       9.2630      0.00000

 k-point     6 :      -0.2500    0.2500    0.0000
  band No.  band energies     occupation 
      1      -5.6618      2.00000
      2      -4.6643      2.00000
      3      -4.6643      2.00000
      4      -3.6453      2.00000
      5      -3.6453      2.00000
      6      -3.3803      2.00000
      7      -3.3803      2.00000
      8      -2.5341      2.00000
      9      -1.5365      2.00000
     10      -1.0810      2.00000
     11      -1.0810      2.00000
     12      -0.2982      2.00000
     13      -0.2982      2.00000
     14       0.4001      2.00000
     15       0.4001      2.00000
     16       1.4241      2.00000
     17       2.2398      2.00000
     18       2.2398      2.00000
     19       2.3385      2.00000
     20       2.3385      2.00000
     21       2.9312      2.00000
     22       2.9312      2.00000
     23       2.9565      2.00000
     24       3.2524      2.00000
     25       3.5176      2.00000
     26       3.5176      2.00000
     27       3.8212      2.00000
     28       3.8212      2.00000
     29       4.0396      2.00000
     30       4.0754      2.00000
     31       4.0754      2.00000
     32       5.3414      2.00000
     33       6.8632      0.00000
     34       7.5865      0.00000
     35       7.5865      0.00000
     36       7.8608      0.00000
     37       7.8608      0.00000
     38       8.2892      0.00000
     39       8.2892      0.00000
     40       8.6051      0.00000
     41       8.6581      0.00000
     42       8.6582      0.00000
     43       8.7428      0.00000
     44       8.7765      0.00000

 k-point     7 :       0.5000    0.5000    0.0000
  band No.  band energies     occupation 
      1      -5.1291      2.00000
      2      -5.1291      2.00000
      3      -4.1862      2.00000
      4      -4.1862      2.00000
      5      -4.1862      2.00000
      6      -4.1862      2.00000
      7      -1.9642      2.00000
      8      -1.9642      2.00000
      9      -1.9642      2.00000
     10      -1.9642      2.00000
     11       0.1895      2.00000
     12       0.1895      2.00000
     13       0.1895      2.00000
     14       0.1895      2.00000
     15       1.8641      2.00000
     16       1.8641      2.00000
     17       1.8641      2.00000
     18       1.8641      2.00000
     19       1.9566      2.00000
     20       1.9566      2.00000
     21       1.9566      2.00000
     22       1.9566      2.00000
     23       2.1133      2.00000
     24       2.1133      2.00000
     25       3.7800      2.00000
     26       3.7800      2.00000
     27       3.7800      2.00000
     28       3.7800      2.00000
     29       4.3274      2.00000
     30       4.3274      2.00000
     31       4.3274      2.00000
     32       4.3274      2.00000
     33       6.7812      0.00000
     34       6.7812      0.00000
     35       8.0698      0.00000
     36       8.0698      0.00000
     37       8.0698      0.00000
     38       8.0698      0.00000
     39       8.7668      0.00000
     40       8.7668      0.00000
     41       9.9012      0.00000
     42       9.9012      0.00000
     43       9.9012      0.00000
     44       9.9012      0.00000

 k-point     8 :      -0.2500    0.5000    0.2500
  band No.  band energies     occupation 
      1      -4.8865      2.00000
      2      -4.8865      2.00000
      3      -4.8865      2.00000
      4      -4.8865      2.00000
      5      -3.1344      2.00000
      6      -3.1344      2.00000
      7      -3.1344      2.00000
      8      -3.1344      2.00000
      9      -0.8899      2.00000
     10      -0.8899      2.00000
     11      -0.8899      2.00000
     12      -0.8899      2.00000
     13       1.3620      2.00000
     14       1.3620      2.00000
     15       1.3620      2.00000
     16       1.3620      2.00000
     17       1.4944      2.00000
     18       1.4944      2.00000
     19       1.4944      2.00000
     20       1.4944      2.00000
     21       2.9752      2.00000
     22       2.9752      2.00000
     23       2.9752      2.00000
     24       2.9752      2.00000
     25       3.1022      2.00000
     26       3.1022      2.00000
     27       3.1022      2.00000
     28       3.1022      2.00000
     29       4.2294      2.00000
     30       4.2294      2.00000
     31       4.2294      2.00000
     32       4.2294      2.00000
     33       8.0747      0.00000
     34       8.0747      0.00000
     35       8.0747      0.00000
     36       8.0747      0.00000
     37       8.4961      0.00000
     38       8.4961      0.00000
     39       8.4961      0.00000
     40       8.4961      0.00000
     41       9.4638      0.00000
     42       9.4638      0.00000
     43       9.4638      0.00000
     44       9.4638      0.00000


--------------------------------------------------------------------------------------------------------


 soft charge-density along one line, spin component           1
         0         1         2         3         4         5         6         7         8         9
 total charge-density along one line
 
 pseudopotential strength for first ion, spin component:           1
 18.435  25.721   0.000   0.000   0.000   0.000   0.000   0.000
 25.721  35.890   0.000   0.000   0.000   0.000   0.000   0.000
  0.000   0.000   4.181  -0.000  -0.000   7.790  -0.000  -0.000
  0.000   0.000  -0.000   4.181  -0.000  -0.000   7.790  -0.000
  0.000   0.000  -0.000  -0.000   4.181  -0.000  -0.000   7.790
  0.000   0.000   7.790  -0.000  -0.000  14.528  -0.000  -0.000
  0.000   0.000  -0.000   7.790  -0.000  -0.000  14.528  -0.000
  0.000   0.000  -0.000  -0.000   7.790  -0.000  -0.000  14.528
 total augmentation occupancy for first ion, spin component:           1
  5.542  -2.071  -0.000  -0.000  -0.000   0.000   0.000   0.000
 -2.071   0.889  -0.000   0.000   0.000   0.000   0.000   0.000
 -0.000   0.000   2.909   0.000  -0.000  -0.650  -0.000   0.000
 -0.000   0.000  -0.000   2.909  -0.000   0.000  -0.650   0.000
  0.000   0.000   0.000   0.000   2.909   0.000  -0.000  -0.650
 -0.000  -0.000  -0.650  -0.000   0.000   0.154  -0.000   0.000
 -0.000   0.000   0.000  -0.650  -0.000  -0.000   0.154  -0.000
  0.000   0.000   0.000  -0.000  -0.650   0.000  -0.000   0.154


------------------------ aborting loop because EDIFF is reached ----------------------------------------


    CHARGE:  cpu time    0.1831: real time    0.1837
    FORLOC:  cpu time    0.0158: real time    0.0159
    FORNL :  cpu time    0.9939: real time    0.9972
    STRESS:  cpu time    2.2023: real time    2.2096
    FORCOR:  cpu time    0.1255: real time    0.1259
    FORHAR:  cpu time    0.0355: real time    0.0357
    MIXING:  cpu time    0.0055: real time    0.0055
    OFIELD:  cpu time    0.0000: real time    0.0001

  FORCE on cell =-STRESS in cart. coord.  units (eV):
  Direction    XX          YY          ZZ          XY          YZ          ZX
  --------------------------------------------------------------------------------------
  Alpha Z    26.38203    26.38203    26.38203
  Ewald    -605.46842  -605.46842  -605.46842     0.00000    -0.00000     0.00000
  Hartree    40.44617    40.44617    40.44617     0.00000     0.00000     0.00000
  E(xc)    -202.04622  -202.04622  -202.04622     0.00000     0.00000     0.00000
  Local    -235.97334  -235.97334  -235.97334     0.00005     0.00005     0.00005
  n-local   623.84498   625.33874   609.88503     6.63470    -3.26598     3.26599
  augment   -93.14227   -93.14227   -93.14227    -0.00005    -0.00005    -0.00005
  Kinetic   456.30965   458.26536   436.49917    11.72359    -5.37402     5.37402
  Fock        0.00000     0.00000     0.00000     0.00000     0.00000     0.00000
  -------------------------------------------------------------------------------------
  Total       0.24560     0.24560     0.24560     0.00000     0.00000    -0.00000
  in kB       1.20461     1.20461     1.20461     0.00000     0.00000    -0.00000
  external pressure =        1.20 kB  Pullay stress =        0.00 kB


 VOLUME and BASIS-vectors are now :
 -----------------------------------------------------------------------------
  energy-cutoff  :      500.00
  volume of cell :      326.65
      direct lattice vectors                 reciprocal lattice vectors
     0.000000000  5.466198844  5.466198844    -0.091471243  0.091471243  0.091471243
     5.466198844  0.000000000  5.466198844     0.091471243 -0.091471243  0.091471243
     5.466198844  5.466198844  0.000000000     0.091471243  0.091471243 -0.091471243

  length of vectors
     7.730372539  7.730372539  7.730372539     0.158432839  0.158432839  0.158432839


 FORCES acting on ions
    electron-ion (+dipol)            ewald-force                    non-local-force                 convergence-correction
 -----------------------------------------------------------------------------------------------
   0.484E-07 0.484E-07 0.491E-07   -.711E-14 -.178E-13 -.142E-13   -.330E-16 -.542E-16 -.262E-16   0.220E-13 0.260E-13 0.306E-13
   0.484E-07 0.484E-07 0.491E-07   0.000E+00 -.178E-13 -.142E-13   0.215E-16 -.783E-16 -.173E-17   0.230E-13 0.226E-13 0.277E-13
   0.484E-07 0.484E-07 0.491E-07   -.355E-14 -.178E-13 -.142E-13   0.375E-16 -.817E-16 -.709E-16   0.203E-13 0.264E-13 0.298E-13
   0.484E-07 0.484E-07 0.491E-07   -.355E-14 -.184E-13 -.140E-13   -.484E-16 0.564E-17 -.108E-15   0.201E-13 0.217E-13 0.293E-13
   0.484E-07 0.484E-07 0.491E-07   -.355E-14 -.178E-13 -.142E-13   0.902E-16 0.364E-16 -.685E-16   0.259E-13 0.302E-13 0.242E-13
   0.484E-07 0.484E-07 0.491E-07   -.311E-14 -.138E-13 -.142E-13   0.590E-16 -.119E-16 -.475E-16   0.254E-13 0.304E-13 0.195E-13
   0.484E-07 0.484E-07 0.491E-07   -.266E-14 -.180E-13 -.151E-13   0.219E-16 -.850E-16 0.308E-16   0.284E-13 0.292E-13 0.217E-13
   0.484E-07 0.484E-07 0.491E-07   -.222E-14 -.175E-13 -.151E-13   0.965E-16 -.408E-16 0.247E-16   0.290E-13 0.304E-13 0.226E-13
   -.484E-07 -.484E-07 -.491E-07   0.737E-14 0.169E-13 0.138E-13   -.249E-16 -.230E-16 0.217E-18   -.225E-13 -.300E-13 -.275E-13
   -.484E-07 -.484E-07 -.491E-07   0.325E-15 0.182E-13 0.146E-13   -.455E-16 0.423E-16 0.104E-16   -.282E-13 -.255E-13 -.225E-13
   -.484E-07 -.484E-07 -.491E-07   0.383E-14 0.174E-13 0.137E-13   -.347E-16 -.124E-16 -.611E-16   -.214E-13 -.295E-13 -.271E-13
   -.484E-07 -.484E-07 -.491E-07   0.343E-14 0.189E-13 0.139E-13   0.180E-16 0.364E-16 -.180E-16   -.272E-13 -.253E-13 -.237E-13
   -.484E-07 -.484E-07 -.491E-07   0.368E-14 0.174E-13 0.143E-13   -.932E-16 -.356E-16 -.206E-16   -.210E-13 -.298E-13 -.288E-13
   -.484E-07 -.484E-07 -.491E-07   0.283E-14 0.142E-13 0.147E-13   -.575E-16 -.781E-17 0.505E-16   -.268E-13 -.255E-13 -.234E-13
   -.484E-07 -.484E-07 -.491E-07   0.234E-14 0.176E-13 0.147E-13   0.325E-17 -.540E-16 0.306E-16   -.231E-13 -.295E-13 -.282E-13
   -.484E-07 -.484E-07 -.491E-07   0.201E-14 0.185E-13 0.156E-13   -.282E-17 -.347E-16 0.343E-16   -.285E-13 -.249E-13 -.245E-13
[...]
      0.683275  3.416374  3.416374     0.221927   -0.224172    0.083684  
      3.416374  0.683275  3.416374     0.135791    0.006662   -0.083684  
      3.416374  3.416374  6.149474    -0.135791    0.224172    0.003034  
      3.416374  3.416374  0.683275    -0.135791    0.224172    0.003034  
      3.416374  6.149474  3.416374     0.135791    0.006662   -0.083684  
      6.149474  3.416374  3.416374     0.221927   -0.224172    0.083684  
      6.149474  6.149474  6.149474    -0.221927   -0.006662   -0.003034  
 
  36 f  =    4.378044 THz    27.508063 2PiTHz  146.035831 cm-1    18.106142 meV
             X         Y         Z           dx          dy          dz
      4.782924  4.782924  4.782924     0.085075    0.143401    0.079629  
      4.782924  7.516023  7.516023    -0.085075   -0.094256   -0.079181  
      7.516023  4.782924  7.516023    -0.275143   -0.143401    0.079181  
      7.516023  7.516023 10.249123     0.275143    0.094256   -0.079629  
      7.516023  7.516023  4.782924     0.275143    0.094256   -0.079629  
      7.516023 10.249123  7.516023    -0.275143   -0.143401    0.079181  
     10.249123  7.516023  7.516023    -0.085075   -0.094256   -0.079181  
     10.249123 10.249123 10.249123     0.085075    0.143401    0.079629  
      0.683275  0.683275  0.683275     0.198233    0.180334   -0.070461  
      0.683275  3.416374  3.416374    -0.198233   -0.179885    0.119606  
      3.416374  0.683275  3.416374    -0.039423   -0.180334   -0.119606  
      3.416374  3.416374  6.149474     0.039423    0.179885    0.070461  
      3.416374  3.416374  0.683275     0.039423    0.179885    0.070461  
      3.416374  6.149474  3.416374    -0.039423   -0.180334   -0.119606  
      6.149474  3.416374  3.416374    -0.198233   -0.179885    0.119606  
      6.149474  6.149474  6.149474     0.198233    0.180334   -0.070461  
 
  37 f  =    4.378044 THz    27.508063 2PiTHz  146.035831 cm-1    18.106142 meV
             X         Y         Z           dx          dy          dz
      4.782924  4.782924  4.782924     0.163173   -0.172790    0.225247  
      4.782924  7.516023  7.516023    -0.163173    0.031805    0.127614  
      7.516023  4.782924  7.516023    -0.022033    0.172790   -0.127614  
      7.516023  7.516023 10.249123     0.022033   -0.031805   -0.225247  
      7.516023  7.516023  4.782924     0.022033   -0.031805   -0.225247  
      7.516023 10.249123  7.516023    -0.022033    0.172790   -0.127614  
     10.249123  7.516023  7.516023    -0.163173    0.031805    0.127614  
     10.249123 10.249123 10.249123     0.163173   -0.172790    0.225247  
      0.683275  0.683275  0.683275    -0.053481    0.269033    0.000077  
      0.683275  3.416374  3.416374     0.053481    0.083827   -0.141062  
      3.416374  0.683275  3.416374     0.151114   -0.269033    0.141062  
      3.416374  3.416374  6.149474    -0.151114   -0.083827   -0.000077  
      3.416374  3.416374  0.683275    -0.151114   -0.083827   -0.000077  
      3.416374  6.149474  3.416374     0.151114   -0.269033    0.141062  
      6.149474  3.416374  3.416374     0.053481    0.083827   -0.141062  
      6.149474  6.149474  6.149474    -0.053481    0.269033    0.000077  
 
  38 f  =    3.322723 THz    20.877283 2PiTHz  110.834096 cm-1    13.741682 meV
             X         Y         Z           dx          dy          dz
      4.782924  4.782924  4.782924     0.149685   -0.067122   -0.202810  
      4.782924  7.516023  7.516023    -0.168071    0.021634    0.137074  
      7.516023  4.782924  7.516023    -0.224444    0.001353    0.115960  
      7.516023  7.516023 10.249123     0.204196   -0.033725   -0.166718  
      7.516023  7.516023  4.782924    -0.204196    0.033725    0.166718  
      7.516023 10.249123  7.516023     0.224444   -0.001353   -0.115960  
     10.249123  7.516023  7.516023     0.168071   -0.021634   -0.137074  
     10.249123 10.249123 10.249123    -0.149685    0.067122    0.202810  
      0.683275  0.683275  0.683275     0.223513    0.005205   -0.108471  
      0.683275  3.416374  3.416374    -0.205127    0.040283    0.174207  
      3.416374  0.683275  3.416374    -0.148754    0.060564    0.195321  
      3.416374  3.416374  6.149474     0.169002   -0.028192   -0.144563  
      3.416374  3.416374  0.683275    -0.169002    0.028192    0.144563  
      3.416374  6.149474  3.416374     0.148754   -0.060564   -0.195321  
      6.149474  3.416374  3.416374     0.205127   -0.040283   -0.174207  
      6.149474  6.149474  6.149474    -0.223513   -0.005205    0.108471  
 
  39 f  =    3.322723 THz    20.877283 2PiTHz  110.834096 cm-1    13.741682 meV
             X         Y         Z           dx          dy          dz
      4.782924  4.782924  4.782924    -0.138433   -0.219362    0.085383  
      4.782924  7.516023  7.516023     0.125286    0.256554   -0.030270  
      7.516023  4.782924  7.516023    -0.171171    0.006981   -0.089376  
      7.516023  7.516023 10.249123     0.189092    0.049056    0.132268  
      7.516023  7.516023  4.782924    -0.189092   -0.049056   -0.132268  
      7.516023 10.249123  7.516023     0.171171   -0.006981    0.089376  
     10.249123  7.516023  7.516023    -0.125286   -0.256554    0.030270  
     10.249123 10.249123 10.249123     0.138433    0.219362   -0.085383  
      0.683275  0.683275  0.683275     0.186705    0.002441    0.083266  
      0.683275  3.416374  3.416374    -0.173558   -0.039634   -0.138379  
      3.416374  0.683275  3.416374     0.122899    0.209939   -0.079272  
      3.416374  3.416374  6.149474    -0.140820   -0.265977    0.036381  
      3.416374  3.416374  0.683275     0.140820    0.265977   -0.036381  
      3.416374  6.149474  3.416374    -0.122899   -0.209939    0.079272  
      6.149474  3.416374  3.416374     0.173558    0.039634    0.138379  
      6.149474  6.149474  6.149474    -0.186705   -0.002441   -0.083266  
 
  40 f  =    3.322723 THz    20.877283 2PiTHz  110.834096 cm-1    13.741682 meV
             X         Y         Z           dx          dy          dz
      4.782924  4.782924  4.782924     0.064440    0.183873    0.119576  
      4.782924  7.516023  7.516023    -0.012970    0.114598    0.208959  
      7.516023  4.782924  7.516023     0.004977    0.195548    0.214526  
      7.516023  7.516023 10.249123     0.025086    0.150086    0.182578  
      7.516023  7.516023  4.782924    -0.025086   -0.150086   -0.182578  
      7.516023 10.249123  7.516023    -0.004977   -0.195548   -0.214526  
     10.249123  7.516023  7.516023     0.012970   -0.114598   -0.208959  
     10.249123 10.249123 10.249123    -0.064440   -0.183873   -0.119576  
      0.683275  0.683275  0.683275    -0.015681   -0.171967   -0.180241  
      0.683275  3.416374  3.416374    -0.035789   -0.126505   -0.148294  
      3.416374  0.683275  3.416374    -0.053736   -0.207454   -0.153860  
      3.416374  3.416374  6.149474     0.023673   -0.138179   -0.243243  
      3.416374  3.416374  0.683275    -0.023673    0.138179    0.243243  
      3.416374  6.149474  3.416374     0.053736    0.207454    0.153860  
      6.149474  3.416374  3.416374     0.035789    0.126505    0.148294  
      6.149474  6.149474  6.149474     0.015681    0.171967    0.180241  
 
  41 f  =    3.322723 THz    20.877283 2PiTHz  110.834096 cm-1    13.741682 meV
             X         Y         Z           dx          dy          dz
      4.782924  4.782924  4.782924     0.122615   -0.040504    0.128966  
      4.782924  7.516023  7.516023    -0.235459    0.145895   -0.134340  
      7.516023  4.782924  7.516023    -0.016929    0.239177   -0.093757  
      7.516023  7.516023 10.249123    -0.093836   -0.216372    0.003718  
      7.516023  7.516023  4.782924     0.093836    0.216372   -0.003718  
      7.516023 10.249123  7.516023     0.016929   -0.239177    0.093757  
     10.249123  7.516023  7.516023     0.235459   -0.145895    0.134340  
     10.249123 10.249123 10.249123    -0.122615    0.040504   -0.128966  
      0.683275  0.683275  0.683275     0.017968   -0.280470    0.051424  
      0.683275  3.416374  3.416374     0.094876    0.175079   -0.046050  
      3.416374  0.683275  3.416374    -0.123655    0.081797   -0.086634  
      3.416374  3.416374  6.149474     0.234420   -0.104602    0.176673  
      3.416374  3.416374  0.683275    -0.234420    0.104602   -0.176673  
      3.416374  6.149474  3.416374     0.123655   -0.081797    0.086634  
      6.149474  3.416374  3.416374    -0.094876   -0.175079    0.046050  
      6.149474  6.149474  6.149474    -0.017968    0.280470   -0.051424  
 
  42 f  =    3.322723 THz    20.877283 2PiTHz  110.834096 cm-1    13.741682 meV
             X         Y         Z           dx          dy          dz
      4.782924  4.782924  4.782924    -0.166039   -0.038780   -0.129981  
      4.782924  7.516023  7.516023    -0.093004   -0.214650    0.114745  
      7.516023  4.782924  7.516023     0.084669    0.230278   -0.182382  
      7.516023  7.516023 10.249123     0.153525   -0.016343    0.137274  
      7.516023  7.516023  4.782924    -0.153525    0.016343   -0.137274  
      7.516023 10.249123  7.516023    -0.084669   -0.230278    0.182382  
     10.249123  7.516023  7.516023     0.093004    0.214650   -0.114745  
     10.249123 10.249123 10.249123     0.166039    0.038780    0.129981  
      0.683275  0.683275  0.683275     0.163950    0.003404    0.167446  
      0.683275  3.416374  3.416374     0.095094    0.250025   -0.152210  
      3.416374  0.683275  3.416374    -0.082579   -0.194903    0.144917  
      3.416374  3.416374  6.149474    -0.155614   -0.019033   -0.099809  
      3.416374  3.416374  0.683275     0.155614    0.019033    0.099809  
      3.416374  6.149474  3.416374     0.082579    0.194903   -0.144917  
      6.149474  3.416374  3.416374    -0.095094   -0.250025    0.152210  
      6.149474  6.149474  6.149474    -0.163950   -0.003404   -0.167446  
 
  43 f  =    3.322723 THz    20.877283 2PiTHz  110.834096 cm-1    13.741682 meV
             X         Y         Z           dx          dy          dz
      4.782924  4.782924  4.782924     0.070628   -0.272363    0.057984  
      4.782924  7.516023  7.516023    -0.062127   -0.112033   -0.184332  
      7.516023  4.782924  7.516023     0.170017    0.066895    0.226928  
      7.516023  7.516023 10.249123     0.088031    0.156300    0.004767  
      7.516023  7.516023  4.782924    -0.088031   -0.156300   -0.004767  
      7.516023 10.249123  7.516023    -0.170017   -0.066895   -0.226928  
     10.249123  7.516023  7.516023     0.062127    0.112033    0.184332  
     10.249123 10.249123 10.249123    -0.070628    0.272363   -0.057984  
      0.683275  0.683275  0.683275    -0.045243    0.236901   -0.047907  
      0.683275  3.416374  3.416374     0.036742    0.147495    0.174255  
      3.416374  0.683275  3.416374    -0.195402   -0.031432   -0.237005  
      3.416374  3.416374  6.149474    -0.062646   -0.191762    0.005310  
      3.416374  3.416374  0.683275     0.062646    0.191762   -0.005310  
      3.416374  6.149474  3.416374     0.195402    0.031432    0.237005  
      6.149474  3.416374  3.416374    -0.036742   -0.147495   -0.174255  
      6.149474  6.149474  6.149474     0.045243   -0.236901    0.047907  
 
  44 f  =    3.322723 THz    20.877283 2PiTHz  110.834096 cm-1    13.741682 meV
             X         Y         Z           dx          dy          dz
      4.782924  4.782924  4.782924     0.231912   -0.050097    0.110892  
      4.782924  7.516023  7.516023     0.162267   -0.045656    0.131653  
      7.516023  4.782924  7.516023     0.156548   -0.082793   -0.021992  
      7.516023  7.516023 10.249123     0.181750   -0.253904    0.079475  
      7.516023  7.516023  4.782924    -0.181750    0.253904   -0.079475  
      7.516023 10.249123  7.516023    -0.156548    0.082793    0.021992  
     10.249123  7.516023  7.516023    -0.162267    0.045656   -0.131653  
     10.249123 10.249123 10.249123    -0.231912    0.050097   -0.110892  
      0.683275  0.683275  0.683275    -0.184488   -0.037679   -0.070540  
      0.683275  3.416374  3.416374    -0.209691    0.133432   -0.172006  
      3.416374  0.683275  3.416374    -0.203972    0.170569   -0.018361  
      3.416374  3.416374  6.149474    -0.134326    0.166128   -0.039122  
      3.416374  3.416374  0.683275     0.134326   -0.166128    0.039122  
      3.416374  6.149474  3.416374     0.203972   -0.170569    0.018361  
      6.149474  3.416374  3.416374     0.209691   -0.133432    0.172006  
      6.149474  6.149474  6.149474     0.184488    0.037679    0.070540  
 
  45 f  =    3.322723 THz    20.877283 2PiTHz  110.834096 cm-1    13.741682 meV
             X         Y         Z           dx          dy          dz
      4.782924  4.782924  4.782924     0.139891   -0.019918   -0.234008  
      4.782924  7.516023  7.516023     0.168144   -0.072457   -0.144127  
      7.516023  4.782924  7.516023    -0.161551    0.082546    0.071951  
      7.516023  7.516023 10.249123    -0.124209   -0.067940    0.250690  
      7.516023  7.516023  4.782924     0.124209    0.067940   -0.250690  
      7.516023 10.249123  7.516023     0.161551   -0.082546   -0.071951  
     10.249123  7.516023  7.516023    -0.168144    0.072457    0.144127  
     10.249123 10.249123 10.249123    -0.139891    0.019918    0.234008  
      0.683275  0.683275  0.683275    -0.135347   -0.029056    0.278437  
      0.683275  3.416374  3.416374    -0.172689    0.121430    0.099698  
      3.416374  0.683275  3.416374     0.157007   -0.033572   -0.116380  
      3.416374  3.416374  6.149474     0.128754    0.018967   -0.206261  
      3.416374  3.416374  0.683275    -0.128754   -0.018967    0.206261  
      3.416374  6.149474  3.416374    -0.157007    0.033572    0.116380  
      6.149474  3.416374  3.416374     0.172689   -0.121430   -0.099698  
      6.149474  6.149474  6.149474     0.135347    0.029056   -0.278437  
 
  46 f  =    0.000001 THz     0.000006 2PiTHz    0.000031 cm-1     0.000004 meV
             X         Y         Z           dx          dy          dz
      4.782924  4.782924  4.782924    -0.162102   -0.190323    0.000184  
      4.782924  7.516023  7.516023    -0.162102   -0.190323    0.000184  
      7.516023  4.782924  7.516023    -0.162102   -0.190323    0.000184  
      7.516023  7.516023 10.249123    -0.162102   -0.190323    0.000184  
      7.516023  7.516023  4.782924    -0.162102   -0.190323    0.000184  
      7.516023 10.249123  7.516023    -0.162102   -0.190323    0.000184  
     10.249123  7.516023  7.516023    -0.162102   -0.190323    0.000184  
     10.249123 10.249123 10.249123    -0.162102   -0.190323    0.000184  
      0.683275  0.683275  0.683275    -0.162102   -0.190323    0.000184  
      0.683275  3.416374  3.416374    -0.162102   -0.190323    0.000184  
      3.416374  0.683275  3.416374    -0.162102   -0.190323    0.000184  
      3.416374  3.416374  6.149474    -0.162102   -0.190323    0.000184  
      3.416374  3.416374  0.683275    -0.162102   -0.190323    0.000184  
      3.416374  6.149474  3.416374    -0.162102   -0.190323    0.000184  
      6.149474  3.416374  3.416374    -0.162102   -0.190323    0.000184  
      6.149474  6.149474  6.149474    -0.162102   -0.190323    0.000184  
 
  47 f  =    0.000001 THz     0.000006 2PiTHz    0.000030 cm-1     0.000004 meV
             X         Y         Z           dx          dy          dz
      4.782924  4.782924  4.782924    -0.006417    0.005223   -0.249863  
      4.782924  7.516023  7.516023    -0.006417    0.005223   -0.249863  
      7.516023  4.782924  7.516023    -0.006417    0.005223   -0.249863  
      7.516023  7.516023 10.249123    -0.006417    0.005223   -0.249863  
      7.516023  7.516023  4.782924    -0.006417    0.005223   -0.249863  
      7.516023 10.249123  7.516023    -0.006417    0.005223   -0.249863  
     10.249123  7.516023  7.516023    -0.006417    0.005223   -0.249863  
     10.249123 10.249123 10.249123    -0.006417    0.005223   -0.249863  
      0.683275  0.683275  0.683275    -0.006417    0.005223   -0.249863  
      0.683275  3.416374  3.416374    -0.006417    0.005223   -0.249863  
      3.416374  0.683275  3.416374    -0.006417    0.005223   -0.249863  
      3.416374  3.416374  6.149474    -0.006417    0.005223   -0.249863  
      3.416374  3.416374  0.683275    -0.006417    0.005223   -0.249863  
      3.416374  6.149474  3.416374    -0.006417    0.005223   -0.249863  
      6.149474  3.416374  3.416374    -0.006417    0.005223   -0.249863  
      6.149474  6.149474  6.149474    -0.006417    0.005223   -0.249863  
 
  48 f  =    0.000001 THz     0.000005 2PiTHz    0.000026 cm-1     0.000003 meV
             X         Y         Z           dx          dy          dz
      4.782924  4.782924  4.782924    -0.190215    0.162018    0.008271  
      4.782924  7.516023  7.516023    -0.190215    0.162018    0.008271  
      7.516023  4.782924  7.516023    -0.190215    0.162018    0.008271  
      7.516023  7.516023 10.249123    -0.190215    0.162018    0.008271  
      7.516023  7.516023  4.782924    -0.190215    0.162018    0.008271  
      7.516023 10.249123  7.516023    -0.190215    0.162018    0.008271  
     10.249123  7.516023  7.516023    -0.190215    0.162018    0.008271  
     10.249123 10.249123 10.249123    -0.190215    0.162018    0.008271  
      0.683275  0.683275  0.683275    -0.190215    0.162018    0.008271  
      0.683275  3.416374  3.416374    -0.190215    0.162018    0.008271  
      3.416374  0.683275  3.416374    -0.190215    0.162018    0.008271  
      3.416374  3.416374  6.149474    -0.190215    0.162018    0.008271  
      3.416374  3.416374  0.683275    -0.190215    0.162018    0.008271  
      3.416374  6.149474  3.416374    -0.190215    0.162018    0.008271  
      6.149474  3.416374  3.416374    -0.190215    0.162018    0.008271  
      6.149474  6.149474  6.149474    -0.190215    0.162018    0.008271  
 


--------------------------------------------------------------------------------------------------------



 ELASTIC MODULI IONIC CONTR (kBar)
 Direction    XX          YY          ZZ          XY          YZ          ZX
 --------------------------------------------------------------------------------
 XX          -0.0000      0.0000      0.0000      0.0000     -0.0000     -0.0000
 YY           0.0000     -0.0000      0.0000      0.0000      0.0000     -0.0000
 ZZ           0.0000      0.0000     -0.0000     -0.0000      0.0000     -0.0000
 XY           0.0000      0.0000     -0.0000   -243.4836     -0.0000      0.0000
 YZ          -0.0000      0.0000      0.0000     -0.0000   -243.4836      0.0000
 ZX          -0.0000     -0.0000     -0.0000      0.0000      0.0000   -243.4836
 --------------------------------------------------------------------------------



--------------------------------------------------------------------------------------------------------


     LOOP+:  cpu time  124.3135: real time  125.3640
    4ORBIT:  cpu time    0.0000: real time    0.0000

 total amount of memory used by VASP MPI-rank0   124929. kBytes
=======================================================================

   base      :      30000. kBytes
   nonl-proj :       6429. kBytes
   fftplans  :      52349. kBytes
   grid      :      24134. kBytes
   one-center:         49. kBytes
   wavefun   :      11968. kBytes
 
  
  
 General timing and accounting informations for this job:
 ========================================================
  
                  Total CPU time used (sec):      125.987
                            User time (sec):      124.124
                          System time (sec):        1.862
                         Elapsed time (sec):      127.872
  
                   Maximum memory used (kb):      501000.
                   Average memory used (kb):           0.
  
                          Minor page faults:       216162
                          Major page faults:            0
                 Voluntary context switches:         4516
