nqpoint: 153    
npath: 3      
segment_nqpoint:
- 51
- 51
- 51
labels:
- [ '$\Gamma$', 'X,' ]
- [ 'X', '$\Gamma$,' ]
- [ '$\Gamma$', 'L' ]
reciprocal_lattice:
- [  -0.18294249,   0.18294249,   0.18294249 ] # a*
- [   0.18294249,  -0.18294249,   0.18294249 ] # b*
- [   0.18294249,   0.18294249,  -0.18294249 ] # c*
natom: 2      
lattice:
- [     0.000000000000000,     2.733099421887393,     2.733099421887393 ] # a
- [     2.733099421887393,     0.000000000000000,     2.733099421887393 ] # b
- [     2.733099421887393,     2.733099421887393,     0.000000000000000 ] # c
points:
- symbol: Si # 1
  coordinates: [  0.875000000000000,  0.875000000000000,  0.875000000000000 ]
  mass: 28.085500
- symbol: Si # 2
  coordinates: [  0.125000000000000,  0.125000000000000,  0.125000000000000 ]
  mass: 28.085500

phonon:
- q-position: [    0.0000000,    0.0000000,    0.0000000 ]
  distance:    0.0000000
  band:
  - # 1
    frequency:   -0.0000001427
    eigenvector:
    - # atom 1
      - [  0.00000000000000,  0.00000000000000 ]
      - [  0.70710678118655,  0.00000000000000 ]
      - [ -0.00000000000000,  0.00000000000000 ]
    - # atom 2
      - [  0.00000000000000,  0.00000000000000 ]
      - [  0.70710678118655,  0.00000000000000 ]
      - [ -0.00000000000000,  0.00000000000000 ]
  - # 2
    frequency:    0.0000000000
    eigenvector:
    - # atom 1
      - [ -0.70710678118655,  0.00000000000000 ]
      - [  0.00000000000000,  0.00000000000000 ]
      - [  0.00000000000000,  0.00000000000000 ]
    - # atom 2
      - [ -0.70710678118655,  0.00000000000000 ]
      - [  0.00000000000000,  0.00000000000000 ]
      - [ -0.00000000000000,  0.00000000000000 ]
  - # 3
    frequency:    0.0000000713
    eigenvector:
    - # atom 1
      - [ -0.00000000000000,  0.00000000000000 ]
      - [ -0.00000000000000,  0.00000000000000 ]
      - [ -0.70710678118655,  0.00000000000000 ]
    - # atom 2
      - [  0.00000000000000,  0.00000000000000 ]
      - [ -0.00000000000000,  0.00000000000000 ]
      - [ -0.70710678118655,  0.00000000000000 ]
  - # 4
    frequency:   15.0912232769
    eigenvector:
    - # atom 1
      - [ -0.00000000000000,  0.00000000000000 ]
      - [  0.70710678118655,  0.00000000000000 ]
      - [ -0.00000000000000,  0.00000000000000 ]
    - # atom 2
      - [  0.00000000000000,  0.00000000000000 ]
      - [ -0.70710678118655,  0.00000000000000 ]
      - [  0.00000000000000,  0.00000000000000 ]
  - # 5
    frequency:   15.0912232769
    eigenvector:
    - # atom 1
      - [  0.70710678118655,  0.00000000000000 ]
      - [  0.00000000000000,  0.00000000000000 ]
      - [  0.00000000000000,  0.00000000000000 ]
    - # atom 2
      - [ -0.70710678118655,  0.00000000000000 ]
      - [  0.00000000000000,  0.00000000000000 ]
      - [ -0.00000000000000,  0.00000000000000 ]
  - # 6
    frequency:   15.0912232769
    eigenvector:
    - # atom 1
      - [  0.00000000000000,  0.00000000000000 ]
      - [  0.00000000000000,  0.00000000000000 ]
      - [  0.70710678118655,  0.00000000000000 ]
    - # atom 2
      - [  0.00000000000000,  0.00000000000000 ]
      - [ -0.00000000000000,  0.00000000000000 ]
      - [ -0.70710678118655,  0.00000000000000 ]

- q-position: [    0.0100000,    0.0100000,    0.0000000 ]
  distance:    0.0036588
  band:
  - # 1
    frequency:    0.1232835772
    eigenvector:
    - # atom 1
      - [ -0.25348513204644,  0.00000000000000 ]
      - [ -0.66010904066426, -0.00115856148590 ]
      - [ -0.00000000000034,  0.00000000000001 ]
    - # atom 2
      - [ -0.25345567951708,  0.01352142334670 ]
      - [ -0.65997054228000,  0.00403397494405 ]
      - [ -0.00000000000034,  0.00000000000001 ]
  - # 2
    frequency:    0.1232835772
    eigenvector:
    - # atom 1
      - [  0.66011005736271,  0.00000000000000 ]
      - [ -0.25348474162981, -0.00044489264777 ]
      - [ -0.00000000000014,  0.00000000000001 ]
    - # atom 2
      - [  0.65996244575280,  0.00519228535343 ]
      - [ -0.25343155764809, -0.01396624347660 ]
      - [ -0.00000000000014,  0.00000000000001 ]
  - # 3
    frequency:    0.2897239095
    eigenvector:
    - # atom 1
      - [ -0.00000000000001,  0.00000000000000 ]
      - [  0.00000000000037, -0.00000000000003 ]
      - [ -0.70133400273499,  0.09016993183825 ]
    - # atom 2
      - [ -0.00000000000001, -0.00000000000001 ]
      - [  0.00000000000037, -0.00000000000003 ]
      - [ -0.70133400273499,  0.09016993183825 ]
  - # 4
    frequency:   15.0899636269
    eigenvector:
    - # atom 1
      - [ -0.00000000000000,  0.00000000000000 ]
      - [  0.70389816950962,  0.06728571141788 ]
      - [ -0.00000000000245,  0.00000000000005 ]
    - # atom 2
      - [ -0.00137825500519,  0.01441838326185 ]
      - [ -0.70375048366811, -0.06727159411038 ]
      - [  0.00000000000245, -0.00000000000005 ]
  - # 5
    frequency:   15.0899636269
    eigenvector:
    - # atom 1
      - [  0.70710678118655,  0.00000000000000 ]
      - [  0.00000000000000,  0.00000000000000 ]
      - [  0.00000000000000,  0.00000000000000 ]
    - # atom 2
      - [ -0.70695842214182,  0.00000000000000 ]
      - [ -0.00000000000000,  0.01448410724708 ]
      - [ -0.00000000000000, -0.00000000000000 ]
  - # 6
    frequency:   15.0906584029
    eigenvector:
    - # atom 1
      - [ -0.00000000000000,  0.00000000000000 ]
      - [  0.00000000000243,  0.00000000000035 ]
      - [  0.70686534901458,  0.01847642721126 ]
    - # atom 2
      - [ -0.00000000000001,  0.00000000000005 ]
      - [ -0.00000000000243, -0.00000000000035 ]
      - [ -0.70686534901458, -0.01847642721126 ]

- q-position: [    0.0200000,    0.0200000,    0.0000000 ]
  distance:    0.0073177
  band:
  - # 1
    frequency:    0.2464923836
    eigenvector:
    - # atom 1
      - [ -0.00000000000000,  0.00000000000000 ]
      - [ -0.02023392623742, -0.70681722406080 ]
      - [  0.00000000000009, -0.00000000000002 ]
    - # atom 2
      - [ -0.02896923802213,  0.00082929703089 ]
      - [ -0.02021692452912, -0.70622331558611 ]
      - [  0.00000000000010, -0.00000000000002 ]
  - # 2
    frequency:    0.2464923836
    eigenvector:
    - # atom 1
      - [ -0.70710678118655,  0.00000000000000 ]
      - [  0.00000000000000,  0.00000000000000 ]
      - [  0.00000000000000,  0.00000000000000 ]
    - # atom 2
      - [ -0.70651262940931,  0.00000000000000 ]
      - [  0.00000000000000,  0.02898110565780 ]
      - [ -0.00000000000000, -0.00000000000000 ]
  - # 3
    frequency:    0.5793048126
    eigenvector:
    - # atom 1
      - [  0.00000000000000,  0.00000000000000 ]
      - [ -0.00000000000001, -0.00000000000010 ]
      - [ -0.68521002526759,  0.17460590274327 ]
    - # atom 2
      - [ -0.00000000000000,  0.00000000000000 ]
      - [ -0.00000000000001, -0.00000000000010 ]
      - [ -0.68521002526759,  0.17460590274327 ]
  - # 4
    frequency:   15.0861859699
    eigenvector:
    - # atom 1
      - [  0.00000000000000,  0.00000000000000 ]
      - [  0.02023392623760, -0.70681722406080 ]
      - [  0.00000000000018,  0.00000000000004 ]
    - # atom 2
      - [  0.02896923802213,  0.00082929703090 ]
      - [ -0.02021692452929,  0.70622331558610 ]
      - [ -0.00000000000018, -0.00000000000004 ]
  - # 5
    frequency:   15.0861859699
    eigenvector:
    - # atom 1
      - [  0.70710678118655,  0.00000000000000 ]
      - [  0.00000000000000,  0.00000000000000 ]
      - [  0.00000000000000,  0.00000000000000 ]
    - # atom 2
      - [ -0.70651262940931,  0.00000000000000 ]
      - [  0.00000000000000,  0.02898110565780 ]
      - [ -0.00000000000000, -0.00000000000000 ]
  - # 6
    frequency:   15.0889581155
    eigenvector:
    - # atom 1
      - [  0.00000000000000,  0.00000000000000 ]
      - [  0.00000000000003,  0.00000000000018 ]
      - [  0.70613913710629,  0.03697998170345 ]
    - # atom 2
      - [ -0.00000000000001,  0.00000000000000 ]
      - [ -0.00000000000003, -0.00000000000018 ]
      - [ -0.70613913710629, -0.03697998170345 ]

- q-position: [    0.0300000,    0.0300000,    0.0000000 ]
  distance:    0.0109765
  band:
  - # 1
    frequency:    0.3695518152
    eigenvector:
    - # atom 1
      - [ -0.23162640043784,  0.00000000000000 ]
      - [  0.66790894839570, -0.01571137400603 ]
      - [  0.00000000000000, -0.00000000000000 ]
    - # atom 2
      - [ -0.23215423454905, -0.04109223613869 ]
      - [  0.66664367654406, -0.00143109534689 ]
      - [  0.00000000000000, -0.00000000000000 ]
  - # 2
    frequency:    0.3695518152
    eigenvector:
    - # atom 1
      - [  0.66809371395053, -0.00000000000000 ]
      - [  0.23156234268741, -0.00544709362019 ]
      - [ -0.00000000000000, -0.00000000000000 ]
    - # atom 2
      - [  0.66649296667741, -0.01424657431136 ]
      - [  0.23112367613741, -0.04654037836825 ]
      - [ -0.00000000000000, -0.00000000000000 ]
  - # 3
    frequency:    0.8686000174
    eigenvector:
    - # atom 1
      - [ -0.00000000000000,  0.00000000000000 ]
      - [  0.00000000000000,  0.00000000000000 ]
      - [ -0.64056979751307,  0.29945005345477 ]
    - # atom 2
      - [ -0.00000000000000, -0.00000000000000 ]
      - [  0.00000000000000,  0.00000000000000 ]
      - [ -0.64056979751307,  0.29945005345477 ]
  - # 4
    frequency:   15.0798942165
    eigenvector:
    - # atom 1
      - [  0.00000000000000, -0.00000000000000 ]
      - [ -0.70576881958960, -0.04347842332823 ]
      - [  0.00000000000007, -0.00000000000001 ]
    - # atom 2
      - [  0.00267495388800, -0.04342151585716 ]
      - [  0.70443182684030,  0.04339605877042 ]
      - [ -0.00000000000007,  0.00000000000001 ]
  - # 5
    frequency:   15.0798942165
    eigenvector:
    - # atom 1
      - [  0.70710678118655,  0.00000000000000 ]
      - [  0.00000000000000,  0.00000000000000 ]
      - [  0.00000000000000,  0.00000000000000 ]
    - # atom 2
      - [ -0.70576725383257,  0.00000000000000 ]
      - [ -0.00000000000000,  0.04350383221782 ]
      - [ -0.00000000000000, -0.00000000000000 ]
  - # 6
    frequency:   15.0861054669
    eigenvector:
    - # atom 1
      - [  0.00000000000000,  0.00000000000000 ]
      - [ -0.00000000000007, -0.00000000000002 ]
      - [ -0.70412569188242, -0.06486146799995 ]
    - # atom 2
      - [  0.00000000000000, -0.00000000000000 ]
      - [  0.00000000000007,  0.00000000000002 ]
      - [  0.70412569188242,  0.06486146799995 ]

- q-position: [    0.0400000,    0.0400000,    0.0000000 ]
  distance:    0.0146354
  band:
  - # 1
    frequency:    0.4923875947
    eigenvector:
    - # atom 1
      - [  0.29170842534407, -0.00000000000000 ]
      - [  0.64312503465876, -0.03600533819379 ]
      - [  0.00000000000000, -0.00000000000000 ]
    - # atom 2
      - [  0.28776662712727, -0.05281106837693 ]
      - [  0.64095304138581, -0.05983776488941 ]
      - [  0.00000000000000, -0.00000000000000 ]
  - # 2
    frequency:    0.4923875947
    eigenvector:
    - # atom 1
      - [ -0.64413212509801,  0.00000000000000 ]
      - [  0.29125234381240, -0.01630575482770 ]
      - [  0.00000000000000, -0.00000000000000 ]
    - # atom 2
      - [ -0.64329569939465, -0.02391657393990 ]
      - [  0.29026871217407,  0.03664308071280 ]
      - [  0.00000000000000, -0.00000000000000 ]
  - # 3
    frequency:    1.1574674576
    eigenvector:
    - # atom 1
      - [  0.00000000000000,  0.00000000000000 ]
      - [ -0.00000000000000, -0.00000000000000 ]
      - [  0.70151414429194, -0.08875756507667 ]
    - # atom 2
      - [  0.00000000000000,  0.00000000000000 ]
      - [ -0.00000000000000, -0.00000000000000 ]
      - [  0.70151414429194, -0.08875756507667 ]
  - # 4
    frequency:   15.0710949854
    eigenvector:
    - # atom 1
      - [ -0.20707565232534,  0.00000000000000 ]
      - [  0.66699347021807,  0.11063175358139 ]
      - [ -0.00000000000007, -0.00000000000000 ]
    - # atom 2
      - [  0.19729163259700,  0.05477105673758 ]
      - [ -0.66474086729897, -0.12726241547947 ]
      - [  0.00000000000007,  0.00000000000000 ]
  - # 5
    frequency:   15.0710949854
    eigenvector:
    - # atom 1
      - [  0.67610625955839,  0.00000000000000 ]
      - [  0.20428461649262,  0.03388393794154 ]
      - [ -0.00000000000003, -0.00000000000000 ]
    - # atom 2
      - [ -0.67660530515396,  0.01677510323583 ]
      - [ -0.20359469650992,  0.02174986211394 ]
      - [  0.00000000000003,  0.00000000000000 ]
  - # 6
    frequency:   15.0820723712
    eigenvector:
    - # atom 1
      - [  0.00000000000001, -0.00000000000000 ]
      - [  0.00000000000007,  0.00000000000003 ]
      - [  0.69528095939293,  0.12878038478605 ]
    - # atom 2
      - [ -0.00000000000001,  0.00000000000001 ]
      - [ -0.00000000000007, -0.00000000000003 ]
      - [ -0.69528095939293, -0.12878038478605 ]

- q-position: [    0.0500000,    0.0500000,    0.0000000 ]
  distance:    0.0182942
  band:
  - # 1
    frequency:    0.6149259153
    eigenvector:
    - # atom 1
      - [  0.00000000000000,  0.00000000000000 ]
      - [  0.70708413004424, -0.00565977380949 ]
      - [  0.00000000000001, -0.00000000000000 ]
    - # atom 2
      - [ -0.00058171779277, -0.07267488653791 ]
      - [  0.70333941154120, -0.00562979963979 ]
      - [  0.00000000000001, -0.00000000000000 ]
  - # 2
    frequency:    0.6149259153
    eigenvector:
    - # atom 1
      - [ -0.70710678118655,  0.00000000000000 ]
      - [  0.00000000000000,  0.00000000000000 ]
      - [  0.00000000000000,  0.00000000000000 ]
    - # atom 2
      - [ -0.70336194272303,  0.00000000000000 ]
      - [  0.00000000000000,  0.07267721464729 ]
      - [ -0.00000000000000, -0.00000000000000 ]
  - # 3
    frequency:    1.4457659986
    eigenvector:
    - # atom 1
      - [  0.00000000000000,  0.00000000000000 ]
      - [  0.00000000000001, -0.00000000000000 ]
      - [ -0.54056141579876,  0.45584356499751 ]
    - # atom 2
      - [ -0.00000000000000, -0.00000000000000 ]
      - [  0.00000000000001, -0.00000000000000 ]
      - [ -0.54056141579876,  0.45584356499751 ]
  - # 4
    frequency:   15.0597977550
    eigenvector:
    - # atom 1
      - [ -0.00000000000000,  0.00000000000000 ]
      - [  0.33577195183704,  0.62229992476261 ]
      - [ -0.00000000000008, -0.00000000000000 ]
    - # atom 2
      - [ -0.06396067243348,  0.03451101144194 ]
      - [ -0.33399370312883, -0.61900422352469 ]
      - [  0.00000000000008,  0.00000000000000 ]
  - # 5
    frequency:   15.0597977550
    eigenvector:
    - # atom 1
      - [  0.70710678118655,  0.00000000000000 ]
      - [  0.00000000000000,  0.00000000000000 ]
      - [  0.00000000000000,  0.00000000000000 ]
    - # atom 2
      - [ -0.70336194272303,  0.00000000000000 ]
      - [  0.00000000000000,  0.07267721464729 ]
      - [ -0.00000000000000, -0.00000000000000 ]
  - # 6
    frequency:   15.0768198421
    eigenvector:
    - # atom 1
      - [  0.00000000000000,  0.00000000000000 ]
      - [  0.00000000000003,  0.00000000000007 ]
      - [  0.69671761323134,  0.12076658235303 ]
    - # atom 2
      - [ -0.00000000000001,  0.00000000000000 ]
      - [ -0.00000000000003, -0.00000000000007 ]
      - [ -0.69671761323134, -0.12076658235303 ]

- q-position: [    0.0600000,    0.0600000,    0.0000000 ]
  distance:    0.0219531
  band:
  - # 1
    frequency:    0.7370935629
    eigenvector:
    - # atom 1
      - [ -0.08414042749519,  0.00000000000000 ]
      - [  0.69709748570623,  0.08351936232380 ]
      - [  0.00000000000001,  0.00000000000000 ]
    - # atom 2
      - [ -0.07317832143102, -0.08611626508908 ]
      - [  0.69175782862578,  0.09327394434988 ]
      - [  0.00000000000001,  0.00000000000000 ]
  - # 2
    frequency:    0.7370935629
    eigenvector:
    - # atom 1
      - [  0.70208289287016,  0.00000000000000 ]
      - [  0.08354295632153,  0.01000929508668 ]
      - [  0.00000000000000,  0.00000000000000 ]
    - # atom 2
      - [  0.69794155132162, -0.01032051832122 ]
      - [  0.08290303041820, -0.07679951424216 ]
      - [  0.00000000000000,  0.00000000000000 ]
  - # 3
    frequency:    1.7333557355
    eigenvector:
    - # atom 1
      - [ -0.00000000000000,  0.00000000000000 ]
      - [  0.00000000000001, -0.00000000000000 ]
      - [ -0.70514128794719,  0.05268552013771 ]
    - # atom 2
      - [ -0.00000000000000, -0.00000000000000 ]
      - [  0.00000000000001, -0.00000000000000 ]
      - [ -0.70514128794719,  0.05268552013771 ]
  - # 4
    frequency:   15.0460150728
    eigenvector:
    - # atom 1
      - [ -0.08987670949842,  0.00000000000000 ]
      - [  0.65903246440103, -0.23999664154992 ]
      - [  0.00000000000003,  0.00000000000001 ]
    - # atom 2
      - [  0.11883636580174,  0.08141388481579 ]
      - [ -0.65398437939579,  0.22705534353664 ]
      - [ -0.00000000000003, -0.00000000000001 ]
  - # 5
    frequency:   15.0460150728
    eigenvector:
    - # atom 1
      - [  0.70137163978146,  0.00000000000000 ]
      - [  0.08445118963101, -0.03075417825548 ]
      - [  0.00000000000000,  0.00000000000000 ]
    - # atom 2
      - [ -0.69220001150747,  0.01043271734940 ]
      - [ -0.08380430680341,  0.11716288080686 ]
      - [ -0.00000000000000, -0.00000000000000 ]
  - # 6
    frequency:   15.0702983226
    eigenvector:
    - # atom 1
      - [  0.00000000000000,  0.00000000000000 ]
      - [ -0.00000000000003,  0.00000000000002 ]
      - [  0.69836542962461,  0.11084099740276 ]
    - # atom 2
      - [ -0.00000000000000, -0.00000000000000 ]
      - [  0.00000000000003, -0.00000000000002 ]
      - [ -0.69836542962461, -0.11084099740276 ]

- q-position: [    0.0700000,    0.0700000,    0.0000000 ]
  distance:    0.0256119
  band:
  - # 1
    frequency:    0.8588180084
    eigenvector:
    - # atom 1
      - [ -0.11329260936520,  0.00000000000000 ]
      - [  0.69342537192201, -0.07953639568175 ]
      - [ -0.00000000000000,  0.00000000000000 ]
    - # atom 2
      - [ -0.12359006770723, -0.10012817482836 ]
      - [  0.68615821428496, -0.06234379471081 ]
      - [ -0.00000000000000,  0.00000000000000 ]
  - # 2
    frequency:    0.8588180084
    eigenvector:
    - # atom 1
      - [  0.69797190821925,  0.00000000000000 ]
      - [  0.11255462986399, -0.01291009810019 ]
      - [ -0.00000000000000,  0.00000000000000 ]
    - # atom 2
      - [  0.68879292991730, -0.01625249105830 ]
      - [  0.11137504764632, -0.11355947777317 ]
      - [ -0.00000000000000,  0.00000000000000 ]
  - # 3
    frequency:    2.0200982806
    eigenvector:
    - # atom 1
      - [ -0.00000000000000,  0.00000000000000 ]
      - [ -0.00000000000000, -0.00000000000000 ]
      - [ -0.61353529981126,  0.35153155745325 ]
    - # atom 2
      - [ -0.00000000000000,  0.00000000000000 ]
      - [ -0.00000000000000, -0.00000000000000 ]
      - [ -0.61353529981126,  0.35153155745325 ]
  - # 4
    frequency:   15.0297628214
    eigenvector:
    - # atom 1
      - [  0.00000000000000, -0.00000000000000 ]
      - [  0.63573971889951, -0.30957230143146 ]
      - [ -0.00000000000001,  0.00000000000000 ]
    - # atom 2
      - [  0.04470114705182,  0.09179857025258 ]
      - [ -0.62907711187581,  0.30632795704248 ]
      - [  0.00000000000001, -0.00000000000000 ]
  - # 5
    frequency:   15.0297628214
    eigenvector:
    - # atom 1
      - [  0.70710678118655,  0.00000000000000 ]
      - [ -0.00000000000000,  0.00000000000000 ]
      - [  0.00000000000000,  0.00000000000000 ]
    - # atom 2
      - [ -0.69969624120173, -0.00000000000000 ]
      - [  0.00000000000000,  0.10210372200936 ]
      - [ -0.00000000000000, -0.00000000000000 ]
  - # 6
    frequency:   15.0624481000
    eigenvector:
    - # atom 1
      - [  0.00000000000000,  0.00000000000000 ]
      - [ -0.00000000000001, -0.00000000000000 ]
      - [ -0.69993128899068, -0.10047980240750 ]
    - # atom 2
      - [ -0.00000000000000, -0.00000000000000 ]
      - [  0.00000000000001,  0.00000000000000 ]
      - [  0.69993128899068,  0.10047980240750 ]

- q-position: [    0.0800000,    0.0800000,    0.0000000 ]
  distance:    0.0292708
  band:
  - # 1
    frequency:    0.9800274636
    eigenvector:
    - # atom 1
      - [  0.34364396958178, -0.00000000000000 ]
      - [  0.61683381580214, -0.03774739531474 ]
      - [ -0.00000000000000, -0.00000000000000 ]
    - # atom 2
      - [  0.33266924020912, -0.10201236625597 ]
      - [  0.60833989960209, -0.09405966352087 ]
      - [ -0.00000000000000, -0.00000000000000 ]
  - # 2
    frequency:    0.9800274636
    eigenvector:
    - # atom 1
      - [ -0.61798772008032,  0.00000000000000 ]
      - [  0.34300231889231, -0.02099016589787 ]
      - [ -0.00000000000000, -0.00000000000000 ]
    - # atom 2
      - [ -0.61294928130467, -0.05672594025343 ]
      - [  0.33827911325984,  0.08150207225946 ]
      - [ -0.00000000000000, -0.00000000000000 ]
  - # 3
    frequency:    2.3058570369
    eigenvector:
    - # atom 1
      - [ -0.00000000000000,  0.00000000000000 ]
      - [ -0.00000000000000,  0.00000000000000 ]
      - [ -0.53448533509350,  0.46295294206862 ]
    - # atom 2
      - [  0.00000000000000,  0.00000000000000 ]
      - [ -0.00000000000000,  0.00000000000000 ]
      - [ -0.53448533509350,  0.46295294206862 ]
  - # 4
    frequency:   15.0110605386
    eigenvector:
    - # atom 1
      - [  0.28215647381624,  0.00000000000000 ]
      - [ -0.64716249680441, -0.03960337123863 ]
      - [ -0.00000000000001, -0.00000000000000 ]
    - # atom 2
      - [ -0.27172149620838, -0.10702814268587 ]
      - [  0.63825094903442,  0.08572124140582 ]
      - [  0.00000000000001,  0.00000000000000 ]
  - # 5
    frequency:   15.0110605386
    eigenvector:
    - # atom 1
      - [ -0.64837313661470,  0.00000000000000 ]
      - [ -0.28162963234079, -0.01723443947458 ]
      - [ -0.00000000000000, -0.00000000000000 ]
    - # atom 2
      - [  0.64229516060103, -0.04657608656802 ]
      - [  0.27775154000008, -0.09023124102046 ]
      - [  0.00000000000000,  0.00000000000000 ]
  - # 6
    frequency:   15.0531998035
    eigenvector:
    - # atom 1
      - [ -0.00000000000000,  0.00000000000000 ]
      - [  0.00000000000001, -0.00000000000000 ]
      - [ -0.69126116697562, -0.14885563150751 ]
    - # atom 2
      - [  0.00000000000000,  0.00000000000000 ]
      - [ -0.00000000000001,  0.00000000000000 ]
      - [  0.69126116697562,  0.14885563150751 ]

- q-position: [    0.0900000,    0.0900000,    0.0000000 ]
  distance:    0.0329296
  band:
  - # 1
    frequency:    1.1006508952
    eigenvector:
    - # atom 1
      - [  0.00000000000000,  0.00000000000000 ]
      - [  0.04726183672200,  0.70552556210931 ]
      - [  0.00000000000000, -0.00000000000000 ]
    - # atom 2
      - [  0.13158325658054, -0.00881451604569 ]
      - [  0.04643259111031,  0.69314656846682 ]
      - [  0.00000000000000, -0.00000000000000 ]
  - # 2
    frequency:    1.1006508952
    eigenvector:
    - # atom 1
      - [ -0.70710678118655,  0.00000000000000 ]
      - [  0.00000000000000,  0.00000000000000 ]
      - [  0.00000000000000,  0.00000000000000 ]
    - # atom 2
      - [ -0.69470004382794,  0.00000000000000 ]
      - [  0.00000000000000,  0.13187816007762 ]
      - [ -0.00000000000000, -0.00000000000000 ]
  - # 3
    frequency:    2.5904974574
    eigenvector:
    - # atom 1
      - [  0.00000000000000,  0.00000000000000 ]
      - [ -0.00000000000000,  0.00000000000000 ]
      - [ -0.70700753114108, -0.01184697893095 ]
    - # atom 2
      - [  0.00000000000000,  0.00000000000000 ]
      - [ -0.00000000000000,  0.00000000000000 ]
      - [ -0.70700753114108, -0.01184697893095 ]
  - # 4
    frequency:   14.9899317875
    eigenvector:
    - # atom 1
      - [  0.00000000000000,  0.00000000000000 ]
      - [ -0.05604330980765,  0.70488236424655 ]
      - [ -0.00000000000001, -0.00000000000000 ]
    - # atom 2
      - [ -0.13146329768188, -0.01045229487078 ]
      - [  0.05505998643416, -0.69251465600983 ]
      - [  0.00000000000001,  0.00000000000000 ]
  - # 5
    frequency:   14.9899317875
    eigenvector:
    - # atom 1
      - [  0.70710678118655,  0.00000000000000 ]
      - [  0.00000000000000,  0.00000000000000 ]
      - [  0.00000000000000,  0.00000000000000 ]
    - # atom 2
      - [ -0.69470004382794,  0.00000000000000 ]
      - [  0.00000000000000,  0.13187816007762 ]
      - [ -0.00000000000000, -0.00000000000000 ]
  - # 6
    frequency:   15.0424749760
    eigenvector:
    - # atom 1
      - [  0.00000000000000,  0.00000000000000 ]
      - [ -0.00000000000000, -0.00000000000001 ]
      - [ -0.70607535147968, -0.03817850223426 ]
    - # atom 2
      - [  0.00000000000000, -0.00000000000000 ]
      - [  0.00000000000000,  0.00000000000001 ]
      - [  0.70607535147968,  0.03817850223426 ]

- q-position: [    0.1000000,    0.1000000,    0.0000000 ]
  distance:    0.0365885
  band:
  - # 1
    frequency:    1.2206179901
    eigenvector:
    - # atom 1
      - [ -0.05067758841276,  0.00000000000000 ]
      - [ -0.50082807351710, -0.49659140428507 ]
      - [ -0.00000000000000, -0.00000000000000 ]
    - # atom 2
      - [ -0.15275403104328,  0.10406276786390 ]
      - [ -0.48989764192875, -0.47522357556962 ]
      - [ -0.00000000000000, -0.00000000000000 ]
  - # 2
    frequency:    1.2206179901
    eigenvector:
    - # atom 1
      - [  0.70528843889055,  0.00000000000000 ]
      - [ -0.03598635334953, -0.03568193296244 ]
      - [ -0.00000000000000, -0.00000000000000 ]
    - # atom 2
      - [  0.68248167476901,  0.00747729556888 ]
      - [ -0.03520096132740, -0.18144901756993 ]
      - [ -0.00000000000000,  0.00000000000000 ]
  - # 3
    frequency:    2.8738872858
    eigenvector:
    - # atom 1
      - [ -0.00000000000000,  0.00000000000000 ]
      - [  0.00000000000000, -0.00000000000000 ]
      - [ -0.53181695514526,  0.46601580039739 ]
    - # atom 2
      - [ -0.00000000000000, -0.00000000000000 ]
      - [  0.00000000000000, -0.00000000000000 ]
      - [ -0.53181695514526,  0.46601580039739 ]
  - # 4
    frequency:   14.9664045747
    eigenvector:
    - # atom 1
      - [  0.00000000000000, -0.00000000000000 ]
      - [  0.66351410990851, -0.24443613880177 ]
      - [  0.00000000000002,  0.00000000000001 ]
    - # atom 2
      - [  0.05078928781098,  0.13786590338067 ]
      - [ -0.64903310141526,  0.23910138894614 ]
      - [ -0.00000000000002, -0.00000000000001 ]
  - # 5
    frequency:   14.9664045747
    eigenvector:
    - # atom 1
      - [  0.70710678118655,  0.00000000000000 ]
      - [ -0.00000000000000,  0.00000000000000 ]
      - [  0.00000000000000,  0.00000000000000 ]
    - # atom 2
      - [ -0.69167437492558, -0.00000000000000 ]
      - [  0.00000000000000,  0.14692365048321 ]
      - [ -0.00000000000000, -0.00000000000000 ]
  - # 6
    frequency:   15.0301867141
    eigenvector:
    - # atom 1
      - [  0.00000000000000,  0.00000000000000 ]
      - [  0.00000000000002, -0.00000000000001 ]
      - [ -0.68701700278454, -0.16735482629715 ]
    - # atom 2
      - [  0.00000000000000,  0.00000000000000 ]
      - [ -0.00000000000002,  0.00000000000001 ]
      - [  0.68701700278454,  0.16735482629715 ]

- q-position: [    0.1100000,    0.1100000,    0.0000000 ]
  distance:    0.0402473
  band:
  - # 1
    frequency:    1.3398590670
    eigenvector:
    - # atom 1
      - [ -0.17414597721771,  0.00000000000000 ]
      - [  0.65364715867515,  0.20595769122513 ]
      - [  0.00000000000000,  0.00000000000000 ]
    - # atom 2
      - [ -0.12229778148273, -0.14983396313264 ]
      - [  0.63624239998295,  0.24039268832537 ]
      - [ -0.00000000000000,  0.00000000000000 ]
  - # 2
    frequency:    1.3398590670
    eigenvector:
    - # atom 1
      - [  0.68532705959920,  0.00000000000000 ]
      - [  0.16609591232197,  0.05233516304592 ]
      - [ -0.00000000000000,  0.00000000000000 ]
    - # atom 2
      - [  0.67907541885853, -0.03807376575120 ]
      - [  0.16167325212165, -0.10615424349521 ]
      - [ -0.00000000000000,  0.00000000000000 ]
  - # 3
    frequency:    3.1558967783
    eigenvector:
    - # atom 1
      - [ -0.00000000000000,  0.00000000000000 ]
      - [ -0.00000000000000, -0.00000000000000 ]
      - [ -0.43606544098709,  0.55663895944924 ]
    - # atom 2
      - [ -0.00000000000000,  0.00000000000000 ]
      - [ -0.00000000000000, -0.00000000000000 ]
      - [ -0.43606544098709,  0.55663895944924 ]
  - # 4
    frequency:   14.9405118109
    eigenvector:
    - # atom 1
      - [ -0.08475054851670,  0.00000000000000 ]
      - [  0.66955844163306, -0.21097117756703 ]
      - [  0.00000000000002,  0.00000000000000 ]
    - # atom 2
      - [  0.13085429791071,  0.15348126818471 ]
      - [ -0.65173001087759,  0.18592645308347 ]
      - [ -0.00000000000002, -0.00000000000000 ]
  - # 5
    frequency:   14.9405118109
    eigenvector:
    - # atom 1
      - [  0.70200950458389,  0.00000000000000 ]
      - [  0.08083287309055, -0.02546963097119 ]
      - [  0.00000000000000, -0.00000000000000 ]
    - # atom 2
      - [ -0.67747865248418,  0.01852912472090 ]
      - [ -0.07868052433195,  0.18571139452425 ]
      - [ -0.00000000000000,  0.00000000000000 ]
  - # 6
    frequency:   15.0162403681
    eigenvector:
    - # atom 1
      - [  0.00000000000000,  0.00000000000000 ]
      - [ -0.00000000000002, -0.00000000000000 ]
      - [  0.66141925674830,  0.25004912877779 ]
    - # atom 2
      - [ -0.00000000000000, -0.00000000000000 ]
      - [  0.00000000000002,  0.00000000000000 ]
      - [ -0.66141925674830, -0.25004912877779 ]

- q-position: [    0.1200000,    0.1200000,    0.0000000 ]
  distance:    0.0439062
  band:
  - # 1
    frequency:    1.4583049309
    eigenvector:
    - # atom 1
      - [  0.08540793912846, -0.00000000000000 ]
      - [  0.69751518398209,  0.07860058554658 ]
      - [  0.00000000000000,  0.00000000000000 ]
    - # atom 2
      - [  0.10239438491293, -0.17497569788616 ]
      - [  0.67521177199070,  0.05466221778101 ]
      - [  0.00000000000000,  0.00000000000000 ]
  - # 2
    frequency:    1.4583049309
    eigenvector:
    - # atom 1
      - [ -0.70192982835454,  0.00000000000000 ]
      - [  0.08487078332940,  0.00956379648598 ]
      - [  0.00000000000000,  0.00000000000000 ]
    - # atom 2