   2   16
1 1
    13.268150227970771    -0.000000000000000     0.000000000000000
     0.000000000000000    13.268150227970770     0.000000000000002
     0.000000000000000    -0.000000000000000    13.268150227970771
1 2
     0.861551630119748    -0.000000000000000    -0.000000000000000
     0.000000000000000    -0.444541416322623    -0.496163393329756
     0.000000000000000    -0.496163393329756    -0.444541416322623
1 3
    -0.444541416322623    -0.000000000000000    -0.496163393329756
    -0.000000000000000     0.861551630119748    -0.000000000000000
    -0.496163393329756    -0.000000000000000    -0.444541416322623
1 4
    -0.444541416322623     0.496163393329756     0.000000000000000
     0.496163393329756    -0.444541416322623     0.000000000000000
    -0.000000000000000     0.000000000000000     0.861551630119748
1 5
    -0.444541416322623    -0.496163393329756     0.000000000000000
    -0.496163393329756    -0.444541416322623     0.000000000000000
     0.000000000000000     0.000000000000000     0.861551630119748
1 6
    -0.444541416322623    -0.000000000000000     0.496163393329756
     0.000000000000000     0.861551630119748    -0.000000000000000
     0.496163393329756    -0.000000000000000    -0.444541416322623
1 7
     0.861551630119748     0.000000000000000    -0.000000000000000
     0.000000000000000    -0.444541416322623     0.496163393329756
    -0.000000000000000     0.496163393329756    -0.444541416322623
1 8
    -0.127307504884826     0.000000000000000     0.000000000000000
    -0.000000000000000    -0.127307504884826    -0.000000000000000
    -0.000000000000000     0.000000000000000    -0.127307504884826
1 9
     0.124427105411662    -0.128527794412458    -0.128527794412458
    -0.128527794412458     0.124427105411662    -0.128527794412458
    -0.128527794412458    -0.128527794412458     0.124427105411662
1 10
     0.124427105411662     0.128527794412458     0.128527794412458
     0.128527794412458     0.124427105411662    -0.128527794412458
     0.128527794412458    -0.128527794412458     0.124427105411662
1 11
     0.124427105411662     0.128527794412458    -0.128527794412458
     0.128527794412458     0.124427105411662     0.128527794412458
    -0.128527794412458     0.128527794412458     0.124427105411662
1 12
    -3.395871831367009    -2.175553489132995     2.175553489132995
    -2.175553489132995    -3.395871831367009     2.175553489132995
     2.175553489132995     2.175553489132995    -3.395871831367009
1 13
     0.124427105411662    -0.128527794412458     0.128527794412458
    -0.128527794412458     0.124427105411662     0.128527794412458
     0.128527794412458     0.128527794412458     0.124427105411662
1 14
    -3.395871831367009     2.175553489132995    -2.175553489132995
     2.175553489132994    -3.395871831367009     2.175553489132994
    -2.175553489132995     2.175553489132995    -3.395871831367009
1 15
    -3.395871831367009     2.175553489132995     2.175553489132995
     2.175553489132995    -3.395871831367009    -2.175553489132996
     2.175553489132995    -2.175553489132995    -3.395871831367009
1 16
    -3.395871831367009    -2.175553489132995    -2.175553489132995
    -2.175553489132995    -3.395871831367009    -2.175553489132995
    -2.175553489132995    -2.175553489132995    -3.395871831367009
9 1
     0.124427105411662    -0.128527794412458    -0.128527794412458
    -0.128527794412458     0.124427105411662    -0.128527794412458
    -0.128527794412458    -0.128527794412458     0.124427105411662
9 2
     0.124427105411662     0.128527794412458     0.128527794412458
     0.128527794412458     0.124427105411662    -0.128527794412458
     0.128527794412458    -0.128527794412458     0.124427105411662
9 3
     0.124427105411662     0.128527794412458    -0.128527794412458
     0.128527794412458     0.124427105411662     0.128527794412458
    -0.128527794412458     0.128527794412458     0.124427105411662
9 4
    -3.395871831367009    -2.175553489132995     2.175553489132995
    -2.175553489132995    -3.395871831367009     2.175553489132995
     2.175553489132995     2.175553489132995    -3.395871831367009
9 5
     0.124427105411662    -0.128527794412458     0.128527794412458
    -0.128527794412458     0.124427105411662     0.128527794412458
     0.128527794412458     0.128527794412458     0.124427105411662
9 6
    -3.395871831367009     2.175553489132995    -2.175553489132995
     2.175553489132995    -3.395871831367009     2.175553489132995
    -2.175553489132995     2.175553489132995    -3.395871831367009
9 7
    -3.395871831367009     2.175553489132995     2.175553489132995
     2.175553489132996    -3.395871831367009    -2.175553489132995
     2.175553489132995    -2.175553489132995    -3.395871831367009
9 8
    -3.395871831367009    -2.175553489132995    -2.175553489132995
    -2.175553489132994    -3.395871831367009    -2.175553489132994
    -2.175553489132995    -2.175553489132995    -3.395871831367009
9 9
    13.268150227970771    -0.000000000000000     0.000000000000000
    -0.000000000000002    13.268150227970770     0.000000000000001
     0.000000000000000     0.000000000000001    13.268150227970771
9 10
     0.861551630119748    -0.000000000000000    -0.000000000000000
    -0.000000000000000    -0.444541416322623    -0.496163393329756
    -0.000000000000000    -0.496163393329756    -0.444541416322623
9 11
    -0.444541416322623    -0.000000000000000    -0.496163393329756
     0.000000000000000     0.861551630119748     0.000000000000000
    -0.496163393329756     0.000000000000000    -0.444541416322623
9 12
    -0.444541416322623     0.496163393329756     0.000000000000000
     0.496163393329756    -0.444541416322623    -0.000000000000000
     0.000000000000000    -0.000000000000000     0.861551630119748
9 13
    -0.444541416322623    -0.496163393329756     0.000000000000000
    -0.496163393329756    -0.444541416322623     0.000000000000000
     0.000000000000000     0.000000000000000     0.861551630119748
9 14
    -0.444541416322623     0.000000000000000     0.496163393329756
     0.000000000000000     0.861551630119748    -0.000000000000000
     0.496163393329756     0.000000000000000    -0.444541416322623
9 15
     0.861551630119748    -0.000000000000000    -0.000000000000000
    -0.000000000000000    -0.444541416322623     0.496163393329756
    -0.000000000000000     0.496163393329756    -0.444541416322623
9 16
    -0.127307504884826    -0.000000000000000    -0.000000000000000
     0.000000000000000    -0.127307504884826    -0.000000000000000
     0.000000000000000    -0.000000000000000    -0.127307504884826