16   
1    

1    
  0.0000000000000000   0.0070710678118655   0.0070710678118655
  -0.0015498600   -0.0938199900   -0.0938199900
   0.0000155200    0.0066518700    0.0066518700
   0.0034970100   -0.0060908400    0.0031512700
  -0.0035197700    0.0031353600   -0.0060933400
   0.0034970100    0.0031512700   -0.0060908400
  -0.0035197700   -0.0060933400    0.0031353600
  -0.0000090300   -0.0003649700   -0.0003649700
   0.0000039100    0.0009002000    0.0009002000
   0.0018177100    0.0000316100    0.0000316100
  -0.0018176100    0.0000263800    0.0000263800
  -0.0000035900   -0.0017935700   -0.0017837500
   0.0001163100    0.0086971400    0.0085630900
  -0.0000035900   -0.0017837500   -0.0017935700
   0.0001163100    0.0085630900    0.0086971400
  -0.0300895800    0.0388905300    0.0388905300
   0.0314490100    0.0398990000    0.0398990000
