# FCC stacking of C60 molecules.

3840 atoms
1 atom types
-26 52 xlo xhi
-26 52 ylo yhi
1.5 57 zlo zhi

Atoms

1 1 9.608215332 6.288483143 4.479228973
2 1 9.417999268 7.528839111 5.203760147
3 1 8.444488525 8.30758667 4.478956223
4 1 8.033203125 7.548859119 3.307950974
5 1 8.752258301 6.300598145 3.308495998
6 1 8.11050415 5.118010998 2.889084101
7 1 9.791625977 5.094329834 5.180367947
8 1 9.417999268 7.528839111 6.60168314
9 1 7.507874012 9.058624268 5.179581165
10 1 6.700562 7.566956043 2.888931036
11 1 8.447357178 8.307617188 7.328398228
12 1 7.510009766 9.057830811 6.630376816
13 1 6.125946045 9.082824707 4.734566212
14 1 5.729248047 8.351531982 3.606587887
15 1 6.038391113 6.339569092 2.462217093
16 1 6.728546143 5.14141798 2.46182394
17 1 8.306395531 3.876923084 3.607134104
18 1 9.130859375 3.866974115 4.735717773
19 1 9.79385376 5.096862793 6.631072998
20 1 9.610351562 6.290985107 7.328730106
21 1 9.133758545 3.871155024 7.083239079
22 1 8.722503662 3.111603022 5.911962986
23 1 8.760131836 6.306457996 8.504007339
24 1 8.041107178 7.553101063 8.504037857
25 1 6.130919933 9.081237793 7.082452774
26 1 5.274962902 9.094970703 5.911085129
27 1 4.465607166 7.607451916 3.610407114
28 1 4.657866955 6.363800049 2.895538092
29 1 6.068542004 3.915679932 2.89608407
30 1 7.042725086 3.132812023 3.611042023
31 1 8.312957764 3.886902094 8.214277267
32 1 8.122802734 5.126433849 8.937116623
33 1 6.712128162 7.5753479 8.938205719
34 1 5.739226818 8.353270531 8.214611053
35 1 4.058867931 8.378631592 5.914810181
36 1 3.645447016 7.620728016 4.741959095
37 1 4.737366199 3.934631109 3.321101904
38 1 4.017578125 5.182891846 3.320220947
39 1 7.506378174 2.395232916 5.915327072
40 1 6.650360107 2.404876947 4.742928982
41 1 6.743712902 5.149840832 9.387069702
42 1 6.051392078 6.351287842 9.388706207
43 1 6.655487061 2.410736084 7.090330124
44 1 7.050751209 3.142822027 8.217763901
45 1 5.269866943 2.429900885 5.19370079
46 1 4.330382824 3.178436041 4.495164871
47 1 3.166687012 5.198363781 4.494377136
48 1 2.985352039 6.394196033 5.192822933
49 1 4.477783203 7.610015869 8.218582153
50 1 3.653320074 7.622467041 7.089968204
51 1 6.080749989 3.924103022 8.942901611
52 1 5.274169922 2.433258057 6.644282818
53 1 3.359710932 3.959686041 5.22151804
54 1 2.991118908 6.395905018 6.643770218
55 1 4.670135021 6.372191906 8.944690704
56 1 3.366210938 3.963927984 6.619225979
57 1 3.177459955 5.20346117 7.343882084
58 1 4.031981945 5.191345215 8.51600647
59 1 4.75033617 3.943847895 8.515490532
60 1 4.339783192 3.185973883 7.343760014
61 1 16.10821533 6.288483143 10.97922897
62 1 15.91799927 7.528839111 11.70376015
63 1 14.94448853 8.30758667 10.97895622
64 1 14.53320312 7.548859119 9.807950974
65 1 15.2522583 6.300598145 9.808496475
66 1 14.61050415 5.118010998 9.389083862
67 1 16.29162598 5.094329834 11.68036842
68 1 15.91799927 7.528839111 13.10168266
69 1 14.00787354 9.058624268 11.67958069
70 1 13.20056152 7.566956043 9.388931274
71 1 14.94735718 8.307617188 13.82839775
72 1 14.01000977 9.057830811 13.13037682
73 1 12.62594604 9.082824707 11.23456573
74 1 12.22924805 8.351531982 10.10658836
75 1 12.53839111 6.339569092 8.962217331
76 1 13.22854614 5.14141798 8.961824417
77 1 14.80639553 3.876923084 10.10713387
78 1 15.63085938 3.866974115 11.23571777
79 1 16.29385376 5.096862793 13.131073
80 1 16.11035156 6.290985107 13.82872963
81 1 15.63375854 3.871155024 13.5832386
82 1 15.22250366 3.111603022 12.41196346
83 1 15.26013184 6.306457996 15.00400734
84 1 14.54110718 7.553101063 15.00403786
85 1 12.63092041 9.081237793 13.58245277
86 1 11.77496338 9.094970703 12.41108513
87 1 10.96560669 7.607451916 10.11040688
88 1 11.15786743 6.363800049 9.39553833
89 1 12.56854153 3.915679932 9.396083832
90 1 13.54272461 3.132812023 10.11104202
91 1 14.81295776 3.886902094 14.71427727
92 1 14.62280273 5.126433849 15.43711662
93 1 13.21212769 7.5753479 15.43820572
94 1 12.23922729 8.353270531 14.71461105
95 1 10.55886841 8.378631592 12.41481018
96 1 10.14544678 7.620728016 11.24195862
97 1 11.23736572 3.934631109 9.821102142
98 1 10.51757812 5.182891846 9.820220947
99 1 14.00637817 2.395232916 12.41532707
100 1 13.15036011 2.404876947 11.24292946
101 1 13.24371338 5.149840832 15.8870697
102 1 12.5513916 6.351287842 15.88870621
103 1 13.15548706 2.410736084 13.59033012
104 1 13.55075073 3.142822027 14.7177639
105 1 11.76986694 2.429900885 11.69370079
106 1 10.8303833 3.178436041 10.99516487
107 1 9.666687012 5.198363781 10.99437714
108 1 9.485351562 6.394196033 11.69282341
109 1 10.9777832 7.610015869 14.71858215
110 1 10.15332031 7.622467041 13.58996773
111 1 12.58075047 3.924103022 15.44290161
112 1 11.77416992 2.433258057 13.14428329
113 1 9.859710693 3.959686041 11.72151756
114 1 9.491119385 6.395905018 13.14377022
115 1 11.17013454 6.372191906 15.4446907
116 1 9.866210938 3.963927984 13.11922646
117 1 9.677459717 5.20346117 13.84388161
118 1 10.53198242 5.191345215 15.01600647
119 1 11.25033569 3.943847895 15.01549053
120 1 10.83978271 3.185973883 13.84375954
121 1 9.608215332 12.78848267 10.97922897
122 1 9.417999268 14.02883911 11.70376015
123 1 8.444488525 14.80758667 10.97895622
124 1 8.033203125 14.04885864 9.807950974
125 1 8.752258301 12.80059814 9.808496475
126 1 8.11050415 11.61801147 9.389083862
127 1 9.791625977 11.59432983 11.68036842
128 1 9.417999268 14.02883911 13.10168266
129 1 7.507874012 15.55862427 11.67958069
130 1 6.700562 14.06695557 9.388931274
131 1 8.447357178 14.80761719 13.82839775
132 1 7.510009766 15.55783081 13.13037682
133 1 6.125946045 15.58282471 11.23456573
134 1 5.729248047 14.85153198 10.10658836
135 1 6.038391113 12.83956909 8.962217331
136 1 6.728546143 11.64141846 8.961824417
137 1 8.306395531 10.37692261 10.10713387
138 1 9.130859375 10.36697388 11.23571777
139 1 9.79385376 11.59686279 13.131073
140 1 9.610351562 12.79098511 13.82872963
141 1 9.133758545 10.37115479 13.5832386
142 1 8.722503662 9.611602783 12.41196346
143 1 8.760131836 12.80645847 15.00400734
144 1 8.041107178 14.05310059 15.00403786
145 1 6.130919933 15.58123779 13.58245277
146 1 5.274962902 15.5949707 12.41108513
147 1 4.465607166 14.10745239 10.11040688
148 1 4.657866955 12.86380005 9.39553833
149 1 6.068542004 10.41567993 9.396083832
150 1 7.042725086 9.632811546 10.11104202
151 1 8.312957764 10.38690186 14.71427727
152 1 8.122802734 11.62643433 15.43711662
153 1 6.712128162 14.0753479 15.43820572
154 1 5.739226818 14.85327053 14.71461105
155 1 4.058867931 14.87863159 12.41481018
156 1 3.645447016 14.12072754 11.24195862
157 1 4.737366199 10.43463135 9.821102142
158 1 4.017578125 11.68289185 9.820220947
159 1 7.506378174 8.895233154 12.41532707
160 1 6.650360107 8.904876709 11.24292946
161 1 6.743712902 11.64984131 15.8870697
162 1 6.051392078 12.85128784 15.88870621
163 1 6.655487061 8.910736084 13.59033012
164 1 7.050751209 9.642822266 14.7177639
165 1 5.269866943 8.929901123 11.69370079
166 1 4.330382824 9.678436279 10.99516487
167 1 3.166687012 11.69836426 10.99437714
168 1 2.985352039 12.89419556 11.69282341
169 1 4.477783203 14.11001587 14.71858215
170 1 3.653320074 14.12246704 13.58996773
171 1 6.080749989 10.42410278 15.44290161
172 1 5.274169922 8.933258057 13.14428329
173 1 3.359710932 10.45968628 11.72151756
174 1 2.991118908 12.89590454 13.14377022
175 1 4.670135021 12.87219238 15.4446907
176 1 3.366210938 10.46392822 13.11922646
177 1 3.177459955 11.70346069 13.84388161
178 1 4.031981945 11.69134521 15.01600647
179 1 4.75033617 10.44384766 15.01549053
180 1 4.339783192 9.685974121 13.84375954
181 1 16.10821533 12.78848267 4.479228973
182 1 15.91799927 14.02883911 5.203760147
183 1 14.94448853 14.80758667 4.478956223
184 1 14.53320312 14.04885864 3.307950974
185 1 15.2522583 12.80059814 3.308495998
186 1 14.61050415 11.61801147 2.889084101
187 1 16.29162598 11.59432983 5.180367947
188 1 15.91799927 14.02883911 6.60168314
189 1 14.00787354 15.55862427 5.179581165
190 1 13.20056152 14.06695557 2.888931036
191 1 14.94735718 14.80761719 7.328398228
192 1 14.01000977 15.55783081 6.630376816
193 1 12.62594604 15.58282471 4.734566212
194 1 12.22924805 14.85153198 3.606587887
195 1 12.53839111 12.83956909 2.462217093
196 1 13.22854614 11.64141846 2.46182394
197 1 14.80639553 10.37692261 3.607134104
198 1 15.63085938 10.36697388 4.735717773
199 1 16.29385376 11.59686279 6.631072998
200 1 16.11035156 12.79098511 7.328730106
201 1 15.63375854 10.37115479 7.083239079
202 1 15.22250366 9.611602783 5.911962986
203 1 15.26013184 12.80645847 8.504007339
204 1 14.54110718 14.05310059 8.504037857
205 1 12.63092041 15.58123779 7.082452774
206 1 11.77496338 15.5949707 5.911085129
207 1 10.96560669 14.10745239 3.610407114
208 1 11.15786743 12.86380005 2.895538092
209 1 12.56854153 10.41567993 2.89608407
210 1 13.54272461 9.632811546 3.611042023
211 1 14.81295776 10.38690186 8.214277267
212 1 14.62280273 11.62643433 8.937116623
213 1 13.21212769 14.0753479 8.938205719
214 1 12.23922729 14.85327053 8.214611053
215 1 10.55886841 14.87863159 5.914810181
216 1 10.14544678 14.12072754 4.741959095
217 1 11.23736572 10.43463135 3.321101904
218 1 10.51757812 11.68289185 3.320220947
219 1 14.00637817 8.895233154 5.915327072
220 1 13.15036011 8.904876709 4.742928982
221 1 13.24371338 11.64984131 9.387069702
222 1 12.5513916 12.85128784 9.388706207
223 1 13.15548706 8.910736084 7.090330124
224 1 13.55075073 9.642822266 8.217763901
225 1 11.76986694 8.929901123 5.19370079
226 1 10.8303833 9.678436279 4.495164871
227 1 9.666687012 11.69836426 4.494377136
228 1 9.485351562 12.89419556 5.192822933
229 1 10.9777832 14.11001587 8.218582153
230 1 10.15332031 14.12246704 7.089968204
231 1 12.58075047 10.42410278 8.942901611
232 1 11.77416992 8.933258057 6.644282818
233 1 9.859710693 10.45968628 5.22151804
234 1 9.491119385 12.89590454 6.643770218
235 1 11.17013454 12.87219238 8.944690704
236 1 9.866210938 10.46392822 6.619225979
237 1 9.677459717 11.70346069 7.343882084
238 1 10.53198242 11.69134521 8.51600647
239 1 11.25033569 10.44384766 8.515490532
240 1 10.83978271 9.685974121 7.343760014
241 1 9.608215332 6.288483143 17.47922897
242 1 9.417999268 7.528839111 18.20376015
243 1 8.444488525 8.30758667 17.47895622
244 1 8.033203125 7.548859119 16.30795097
245 1 8.752258301 6.300598145 16.30849648
246 1 8.11050415 5.118010998 15.88908386
247 1 9.791625977 5.094329834 18.18036842
248 1 9.417999268 7.528839111 19.60168266
249 1 7.507874012 9.058624268 18.17958069
250 1 6.700562 7.566956043 15.88893127
251 1 8.447357178 8.307617188 20.32839775
252 1 7.510009766 9.057830811 19.63037682
253 1 6.125946045 9.082824707 17.73456573
254 1 5.729248047 8.351531982 16.60658836
255 1 6.038391113 6.339569092 15.46221733
256 1 6.728546143 5.14141798 15.46182442
257 1 8.306395531 3.876923084 16.60713387
258 1 9.130859375 3.866974115 17.73571777
259 1 9.79385376 5.096862793 19.631073
260 1 9.610351562 6.290985107 20.32872963
261 1 9.133758545 3.871155024 20.0832386
262 1 8.722503662 3.111603022 18.91196251
263 1 8.760131836 6.306457996 21.50400734
264 1 8.041107178 7.553101063 21.50403786
265 1 6.130919933 9.081237793 20.08245277
266 1 5.274962902 9.094970703 18.91108513
267 1 4.465607166 7.607451916 16.61040688
268 1 4.657866955 6.363800049 15.89553833
269 1 6.068542004 3.915679932 15.89608383
270 1 7.042725086 3.132812023 16.61104202
271 1 8.312957764 3.886902094 21.21427727
272 1 8.122802734 5.126433849 21.93711662
273 1 6.712128162 7.5753479 21.93820572
274 1 5.739226818 8.353270531 21.21461105
275 1 4.058867931 8.378631592 18.91481018
276 1 3.645447016 7.620728016 17.74195862
277 1 4.737366199 3.934631109 16.32110214
278 1 4.017578125 5.182891846 16.32022095
279 1 7.506378174 2.395232916 18.91532707
280 1 6.650360107 2.404876947 17.74292946
281 1 6.743712902 5.149840832 22.3870697
282 1 6.051392078 6.351287842 22.38870621
283 1 6.655487061 2.410736084 20.09033012
284 1 7.050751209 3.142822027 21.2177639
285 1 5.269866943 2.429900885 18.19370079
286 1 4.330382824 3.178436041 17.49516487
287 1 3.166687012 5.198363781 17.49437714
288 1 2.985352039 6.394196033 18.19282341
289 1 4.477783203 7.610015869 21.21858215
290 1 3.653320074 7.622467041 20.08996773
291 1 6.080749989 3.924103022 21.94290161
292 1 5.274169922 2.433258057 19.64428329
293 1 3.359710932 3.959686041 18.22151756
294 1 2.991118908 6.395905018 19.64377022
295 1 4.670135021 6.372191906 21.9446907
296 1 3.366210938 3.963927984 19.61922646
297 1 3.177459955 5.20346117 20.34388161
298 1 4.031981945 5.191345215 21.51600647
299 1 4.75033617 3.943847895 21.51549149
300 1 4.339783192 3.185973883 20.34375954
301 1 16.10821533 6.288483143 23.97922897
302 1 15.91799927 7.528839111 24.70376015
303 1 14.94448853 8.30758667 23.97895622
304 1 14.53320312 7.548859119 22.80795097
305 1 15.2522583 6.300598145 22.80849648
306 1 14.61050415 5.118010998 22.38908386
307 1 16.29162598 5.094329834 24.68036842
308 1 15.91799927 7.528839111 26.10168266
309 1 14.00787354 9.058624268 24.67958069
310 1 13.20056152 7.566956043 22.38893127
311 1 14.94735718 8.307617188 26.82839775
312 1 14.01000977 9.057830811 26.13037682
313 1 12.62594604 9.082824707 24.23456573
314 1 12.22924805 8.351531982 23.10658836
315 1 12.53839111 6.339569092 21.96221733
316 1 13.22854614 5.14141798 21.96182442
317 1 14.80639553 3.876923084 23.10713387
318 1 15.63085938 3.866974115 24.23571777
319 1 16.29385376 5.096862793 26.131073
320 1 16.11035156 6.290985107 26.82872963
321 1 15.63375854 3.871155024 26.5832386
322 1 15.22250366 3.111603022 25.41196251
323 1 15.26013184 6.306457996 28.00400734
324 1 14.54110718 7.553101063 28.00403786
325 1 12.63092041 9.081237793 26.58245277
326 1 11.77496338 9.094970703 25.41108513
327 1 10.96560669 7.607451916 23.11040688
328 1 11.15786743 6.363800049 22.39553833
329 1 12.56854153 3.915679932 22.39608383
330 1 13.54272461 3.132812023 23.11104202
331 1 14.81295776 3.886902094 27.71427727
332 1 14.62280273 5.126433849 28.43711662
333 1 13.21212769 7.5753479 28.43820572
334 1 12.23922729 8.353270531 27.71461105
335 1 10.55886841 8.378631592 25.41481018
336 1 10.14544678 7.620728016 24.24195862
337 1 11.23736572 3.934631109 22.82110214
338 1 10.51757812 5.182891846 22.82022095
339 1 14.00637817 2.395232916 25.41532707
340 1 13.15036011 2.404876947 24.24292946
341 1 13.24371338 5.149840832 28.8870697
342 1 12.5513916 6.351287842 28.88870621
343 1 13.15548706 2.410736084 26.59033012
344 1 13.55075073 3.142822027 27.7177639
345 1 11.76986694 2.429900885 24.69370079
346 1 10.8303833 3.178436041 23.99516487
347 1 9.666687012 5.198363781 23.99437714
348 1 9.485351562 6.394196033 24.69282341
349 1 10.9777832 7.610015869 27.71858215
350 1 10.15332031 7.622467041 26.58996773
351 1 12.58075047 3.924103022 28.44290161
352 1 11.77416992 2.433258057 26.14428329
353 1 9.859710693 3.959686041 24.72151756
354 1 9.491119385 6.395905018 26.14377022
355 1 11.17013454 6.372191906 28.4446907
356 1 9.866210938 3.963927984 26.11922646
357 1 9.677459717 5.20346117 26.84388161
358 1 10.53198242 5.191345215 28.01600647
359 1 11.25033569 3.943847895 28.01549149
360 1 10.83978271 3.185973883 26.84375954
361 1 9.608215332 12.78848267 23.97922897
362 1 9.417999268 14.02883911 24.70376015
363 1 8.444488525 14.80758667 23.97895622
364 1 8.033203125 14.04885864 22.80795097
365 1 8.752258301 12.80059814 22.80849648
366 1 8.11050415 11.61801147 22.38908386
367 1 9.791625977 11.59432983 24.68036842
368 1 9.417999268 14.02883911 26.10168266
369 1 7.507874012 15.55862427 24.67958069
370 1 6.700562 14.06695557 22.38893127
371 1 8.447357178 14.80761719 26.82839775
372 1 7.510009766 15.55783081 26.13037682
373 1 6.125946045 15.58282471 24.23456573
374 1 5.729248047 14.85153198 23.10658836
375 1 6.038391113 12.83956909 21.96221733
376 1 6.728546143 11.64141846 21.96182442
377 1 8.306395531 10.37692261 23.10713387
378 1 9.130859375 10.36697388 24.23571777
379 1 9.79385376 11.59686279 26.131073
380 1 9.610351562 12.79098511 26.82872963
381 1 9.133758545 10.37115479 26.5832386
382 1 8.722503662 9.611602783 25.41196251
383 1 8.760131836 12.80645847 28.00400734
384 1 8.041107178 14.05310059 28.00403786
385 1 6.130919933 15.58123779 26.58245277
386 1 5.274962902 15.5949707 25.41108513
387 1 4.465607166 14.10745239 23.11040688
388 1 4.657866955 12.86380005 22.39553833
389 1 6.068542004 10.41567993 22.39608383
390 1 7.042725086 9.632811546 23.11104202
391 1 8.312957764 10.38690186 27.71427727
392 1 8.122802734 11.62643433 28.43711662
393 1 6.712128162 14.0753479 28.43820572
394 1 5.739226818 14.85327053 27.71461105
395 1 4.058867931 14.87863159 25.41481018
396 1 3.645447016 14.12072754 24.24195862
397 1 4.737366199 10.43463135 22.82110214
398 1 4.017578125 11.68289185 22.82022095
399 1 7.506378174 8.895233154 25.41532707
400 1 6.650360107 8.904876709 24.24292946
401 1 6.743712902 11.64984131 28.8870697
402 1 6.051392078 12.85128784 28.88870621
403 1 6.655487061 8.910736084 26.59033012
404 1 7.050751209 9.642822266 27.7177639
405 1 5.269866943 8.929901123 24.69370079
406 1 4.330382824 9.678436279 23.99516487
407 1 3.166687012 11.69836426 23.99437714
408 1 2.985352039 12.89419556 24.69282341
409 1 4.477783203 14.11001587 27.71858215
410 1 3.653320074 14.12246704 26.58996773
411 1 6.080749989 10.42410278 28.44290161
412 1 5.274169922 8.933258057 26.14428329
413 1 3.359710932 10.45968628 24.72151756
414 1 2.991118908 12.89590454 26.14377022
415 1 4.670135021 12.87219238 28.4446907
416 1 3.366210938 10.46392822 26.11922646
417 1 3.177459955 11.70346069 26.84388161
418 1 4.031981945 11.69134521 28.01600647
419 1 4.75033617 10.44384766 28.01549149
420 1 4.339783192 9.685974121 26.84375954
421 1 16.10821533 12.78848267 17.47922897
422 1 15.91799927 14.02883911 18.20376015
423 1 14.94448853 14.80758667 17.47895622
424 1 14.53320312 14.04885864 16.30795097
425 1 15.2522583 12.80059814 16.30849648
426 1 14.61050415 11.61801147 15.88908386
427 1 16.29162598 11.59432983 18.18036842
428 1 15.91799927 14.02883911 19.60168266
429 1 14.00787354 15.55862427 18.17958069
430 1 13.20056152 14.06695557 15.88893127
431 1 14.94735718 14.80761719 20.32839775
432 1 14.01000977 15.55783081 19.63037682
433 1 12.62594604 15.58282471 17.73456573
434 1 12.22924805 14.85153198 16.60658836
435 1 12.53839111 12.83956909 15.46221733
436 1 13.22854614 11.64141846 15.46182442
437 1 14.80639553 10.37692261 16.60713387
438 1 15.63085938 10.36697388 17.73571777
439 1 16.29385376 11.59686279 19.631073
440 1 16.11035156 12.79098511 20.32872963
441 1 15.63375854 10.37115479 20.0832386
442 1 15.22250366 9.611602783 18.91196251
443 1 15.26013184 12.80645847 21.50400734
444 1 14.54110718 14.05310059 21.50403786
445 1 12.63092041 15.58123779 20.08245277
446 1 11.77496338 15.5949707 18.91108513
447 1 10.96560669 14.10745239 16.61040688
448 1 11.15786743 12.86380005 15.89553833
449 1 12.56854153 10.41567993 15.89608383
450 1 13.54272461 9.632811546 16.61104202
451 1 14.81295776 10.38690186 21.21427727
452 1 14.62280273 11.62643433 21.93711662
453 1 13.21212769 14.0753479 21.93820572
454 1 12.23922729 14.85327053 21.21461105
455 1 10.55886841 14.87863159 18.91481018
456 1 10.14544678 14.12072754 17.74195862
457 1 11.23736572 10.43463135 16.32110214
458 1 10.51757812 11.68289185 16.32022095
459 1 14.00637817 8.895233154 18.91532707
460 1 13.15036011 8.904876709 17.74292946
461 1 13.24371338 11.64984131 22.3870697
462 1 12.5513916 12.85128784 22.38870621
463 1 13.15548706 8.910736084 20.09033012
464 1 13.55075073 9.642822266 21.2177639
465 1 11.76986694 8.929901123 18.19370079
466 1 10.8303833 9.678436279 17.49516487
467 1 9.666687012 11.69836426 17.49437714
468 1 9.485351562 12.89419556 18.19282341
469 1 10.9777832 14.11001587 21.21858215
470 1 10.15332031 14.12246704 20.08996773
471 1 12.58075047 10.42410278 21.94290161
472 1 11.77416992 8.933258057 19.64428329
473 1 9.859710693 10.45968628 18.22151756
474 1 9.491119385 12.89590454 19.64377022
475 1 11.17013454 12.87219238 21.9446907
476 1 9.866210938 10.46392822 19.61922646
477 1 9.677459717 11.70346069 20.34388161
478 1 10.53198242 11.69134521 21.51600647
479 1 11.25033569 10.44384766 21.51549149
480 1 10.83978271 9.685974121 20.34375954
481 1 9.608215332 6.288483143 30.47922897
482 1 9.417999268 7.528839111 31.20376015
483 1 8.444488525 8.30758667 30.47895622
484 1 8.033203125 7.548859119 29.30795097
485 1 8.752258301 6.300598145 29.30849648
486 1 8.11050415 5.118010998 28.88908386
487 1 9.791625977 5.094329834 31.18036842
488 1 9.417999268 7.528839111 32.60168457
489 1 7.507874012 9.058624268 31.17958069
490 1 6.700562 7.566956043 28.88893127
491 1 8.447357178 8.307617188 33.32839966
492 1 7.510009766 9.057830811 32.63037872
493 1 6.125946045 9.082824707 30.73456573
494 1 5.729248047 8.351531982 29.60658836
495 1 6.038391113 6.339569092 28.46221733
496 1 6.728546143 5.14141798 28.46182442
497 1 8.306395531 3.876923084 29.60713387
498 1 9.130859375 3.866974115 30.73571777
499 1 9.79385376 5.096862793 32.631073
500 1 9.610351562 6.290985107 33.32873154
501 1 9.133758545 3.871155024 33.08324051
502 1 8.722503662 3.111603022 31.91196251
503 1 8.760131836 6.306457996 34.50400543
504 1 8.041107178 7.553101063 34.50403976
505 1 6.130919933 9.081237793 33.08245468
506 1 5.274962902 9.094970703 31.91108513
507 1 4.465607166 7.607451916 29.61040688
508 1 4.657866955 6.363800049 28.89553833
509 1 6.068542004 3.915679932 28.89608383
510 1 7.042725086 3.132812023 29.61104202
511 1 8.312957764 3.886902094 34.21427536
512 1 8.122802734 5.126433849 34.93711853
513 1 6.712128162 7.5753479 34.93820572
514 1 5.739226818 8.353270531 34.21461105
515 1 4.058867931 8.378631592 31.91481018
516 1 3.645447016 7.620728016 30.74195862
517 1 4.737366199 3.934631109 29.32110214
518 1 4.017578125 5.182891846 29.32022095
519 1 7.506378174 2.395232916 31.91532707
520 1 6.650360107 2.404876947 30.74292946
521 1 6.743712902 5.149840832 35.3870697
522 1 6.051392078 6.351287842 35.38870621
523 1 6.655487061 2.410736084 33.09032822
524 1 7.050751209 3.142822027 34.21776581
525 1 5.269866943 2.429900885 31.19370079
526 1 4.330382824 3.178436041 30.49516487
527 1 3.166687012 5.198363781 30.49437714
528 1 2.985352039 6.394196033 31.19282341
529 1 4.477783203 7.610015869 34.21858215
530 1 3.653320074 7.622467041 33.08996964
531 1 6.080749989 3.924103022 34.94290161
532 1 5.274169922 2.433258057 32.64428329
533 1 3.359710932 3.959686041 31.22151756
534 1 2.991118908 6.395905018 32.64376831
535 1 4.670135021 6.372191906 34.9446907
536 1 3.366210938 3.963927984 32.61922455
537 1 3.177459955 5.20346117 33.34388351
538 1 4.031981945 5.191345215 34.51600647
539 1 4.75033617 3.943847895 34.51549149
540 1 4.339783192 3.185973883 33.34376144
541 1 16.10821533 6.288483143 36.97922897
542 1 15.91799927 7.528839111 37.70375824
543 1 14.94448853 8.30758667 36.97895432
544 1 14.53320312 7.548859119 35.80795288
545 1 15.2522583 6.300598145 35.80849457
546 1 14.61050415 5.118010998 35.38908386
547 1 16.29162598 5.094329834 37.68036652
548 1 15.91799927 7.528839111 39.10168457
549 1 14.00787354 9.058624268 37.67958069
550 1 13.20056152 7.566956043 35.38893127
551 1 14.94735718 8.307617188 39.82839966
552 1 14.01000977 9.057830811 39.13037872
553 1 12.62594604 9.082824707 37.23456573
554 1 12.22924805 8.351531982 36.10658646
555 1 12.53839111 6.339569092 34.96221542
556 1 13.22854614 5.14141798 34.96182251
557 1 14.80639553 3.876923084 36.10713577
558 1 15.63085938 3.866974115 37.23571777
559 1 16.29385376 5.096862793 39.131073
560 1 16.11035156 6.290985107 39.82873154
561 1 15.63375854 3.871155024 39.58324051
562 1 15.22250366 3.111603022 38.41196442
563 1 15.26013184 6.306457996 41.00400543
564 1 14.54110718 7.553101063 41.00403976
565 1 12.63092041 9.081237793 39.58245468
566 1 11.77496338 9.094970703 38.41108322
567 1 10.96560669 7.607451916 36.11040878
568 1 11.15786743 6.363800049 35.39553833
569 1 12.56854153 3.915679932 35.39608383
570 1 13.54272461 3.132812023 36.11104202
571 1 14.81295776 3.886902094 40.71427536
572 1 14.62280273 5.126433849 41.43711853
573 1 13.21212769 7.5753479 41.43820572
574 1 12.23922729 8.353270531 40.71461105
575 1 10.55886841 8.378631592 38.41481018
576 1 10.14544678 7.620728016 37.24195862
577 1 11.23736572 3.934631109 35.82110214
578 1 10.51757812 5.182891846 35.82022095
579 1 14.00637817 2.395232916 38.41532516
580 1 13.15036011 2.404876947 37.24292755
581 1 13.24371338 5.149840832 41.8870697
582 1 12.5513916 6.351287842 41.88870621
583 1 13.15548706 2.410736084 39.59032822
584 1 13.55075073 3.142822027 40.71776581
585 1 11.76986694 2.429900885 37.6937027
586 1 10.8303833 3.178436041 36.99516678
587 1 9.666687012 5.198363781 36.99437714
588 1 9.485351562 6.394196033 37.6928215
589 1 10.9777832 7.610015869 40.71858215
590 1 10.15332031 7.622467041 39.58996964
591 1 12.58075047 3.924103022 41.44290161
592 1 11.77416992 2.433258057 39.14428329
593 1 9.859710693 3.959686041 37.72151947
594 1 9.491119385 6.395905018 39.14376831
595 1 11.17013454 6.372191906 41.4446907
596 1 9.866210938 3.963927984 39.11922455
597 1 9.677459717 5.20346117 39.84388351
598 1 10.53198242 5.191345215 41.01600647
599 1 11.25033569 3.943847895 41.01549149
600 1 10.83978271 3.185973883 39.84376144
601 1 9.608215332 12.78848267 36.97922897
602 1 9.417999268 14.02883911 37.70375824
603 1 8.444488525 14.80758667 36.97895432
604 1 8.033203125 14.04885864 35.80795288
605 1 8.752258301 12.80059814 35.80849457
606 1 8.11050415 11.61801147 35.38908386
607 1 9.791625977 11.59432983 37.68036652
608 1 9.417999268 14.02883911 39.10168457
609 1 7.507874012 15.55862427 37.67958069
610 1 6.700562 14.06695557 35.38893127
611 1 8.447357178 14.80761719 39.82839966
612 1 7.510009766 15.55783081 39.13037872
613 1 6.125946045 15.58282471 37.23456573
614 1 5.729248047 14.85153198 36.10658646
615 1 6.038391113 12.83956909 34.96221542
616 1 6.728546143 11.64141846 34.96182251
617 1 8.306395531 10.37692261 36.10713577
618 1 9.130859375 10.36697388 37.23571777
619 1 9.79385376 11.59686279 39.131073
620 1 9.610351562 12.79098511 39.82873154
621 1 9.133758545 10.37115479 39.58324051
622 1 8.722503662 9.611602783 38.41196442
623 1 8.760131836 12.80645847 41.00400543
624 1 8.041107178 14.05310059 41.00403976
625 1 6.130919933 15.58123779 39.58245468
626 1 5.274962902 15.5949707 38.41108322
627 1 4.465607166 14.10745239 36.11040878
628 1 4.657866955 12.86380005 35.39553833
629 1 6.068542004 10.41567993 35.39608383
630 1 7.042725086 9.632811546 36.11104202
631 1 8.312957764 10.38690186 40.71427536
632 1 8.122802734 11.62643433 41.43711853
633 1 6.712128162 14.0753479 41.43820572
634 1 5.739226818 14.85327053 40.71461105
635 1 4.058867931 14.87863159 38.41481018
636 1 3.645447016 14.12072754 37.24195862
637 1 4.737366199 10.43463135 35.82110214
638 1 4.017578125 11.68289185 35.82022095
639 1 7.506378174 8.895233154 38.41532516
640 1 6.650360107 8.904876709 37.24292755
641 1 6.743712902 11.64984131 41.8870697
642 1 6.051392078 12.85128784 41.88870621
643 1 6.655487061 8.910736084 39.59032822
644 1 7.050751209 9.642822266 40.71776581
645 1 5.269866943 8.929901123 37.6937027
646 1 4.330382824 9.678436279 36.99516678
647 1 3.166687012 11.69836426 36.99437714
648 1 2.985352039 12.89419556 37.6928215
649 1 4.477783203 14.11001587 40.71858215
650 1 3.653320074 14.12246704 39.58996964
651 1 6.080749989 10.42410278 41.44290161
652 1 5.274169922 8.933258057 39.14428329
653 1 3.359710932 10.45968628 37.72151947
654 1 2.991118908 12.89590454 39.14376831
655 1 4.670135021 12.87219238 41.4446907
656 1 3.366210938 10.46392822 39.11922455
657 1 3.177459955 11.70346069 39.84388351
658 1 4.031981945 11.69134521 41.01600647
659 1 4.75033617 10.44384766 41.01549149
660 1 4.339783192 9.685974121 39.84376144
661 1 16.10821533 12.78848267 30.47922897
662 1 15.91799927 14.02883911 31.20376015
663 1 14.94448853 14.80758667 30.47895622
664 1 14.53320312 14.04885864 29.30795097
665 1 15.2522583 12.80059814 29.30849648
666 1 14.61050415 11.61801147 28.88908386
667 1 16.29162598 11.59432983 31.18036842
668 1 15.91799927 14.02883911 32.60168457
669 1 14.00787354 15.55862427 31.17958069
670 1 13.20056152 14.06695557 28.88893127
671 1 14.94735718 14.80761719 33.32839966
672 1 14.01000977 15.55783081 32.63037872
673 1 12.62594604 15.58282471 30.73456573
674 1 12.22924805 14.85153198 29.60658836
675 1 12.53839111 12.83956909 28.46221733
676 1 13.22854614 11.64141846 28.46182442
677 1 14.80639553 10.37692261 29.60713387
678 1 15.63085938 10.36697388 30.73571777
679 1 16.29385376 11.59686279 32.631073
680 1 16.11035156 12.79098511 33.32873154
681 1 15.63375854 10.37115479 33.08324051
682 1 15.22250366 9.611602783 31.91196251
683 1 15.26013184 12.80645847 34.50400543
684 1 14.54110718 14.05310059 34.50403976
685 1 12.63092041 15.58123779 33.08245468
686 1 11.77496338 15.5949707 31.91108513
687 1 10.96560669 14.10745239 29.61040688
688 1 11.15786743 12.86380005 28.89553833
689 1 12.56854153 10.41567993 28.89608383
690 1 13.54272461 9.632811546 29.61104202
691 1 14.81295776 10.38690186 34.21427536
692 1 14.62280273 11.62643433 34.93711853
693 1 13.21212769 14.0753479 34.93820572
694 1 12.23922729 14.85327053 34.21461105
695 1 10.55886841 14.87863159 31.91481018
696 1 10.14544678 14.12072754 30.74195862
697 1 11.23736572 10.43463135 29.32110214
698 1 10.51757812 11.68289185 29.32022095
699 1 14.00637817 8.895233154 31.91532707
700 1 13.15036011 8.904876709 30.74292946
701 1 13.24371338 11.64984131 35.3870697
702 1 12.5513916 12.85128784 35.38870621
703 1 13.15548706 8.910736084 33.09032822
704 1 13.55075073 9.642822266 34.21776581
705 1 11.76986694 8.929901123 31.19370079
706 1 10.8303833 9.678436279 30.49516487
707 1 9.666687012 11.69836426 30.49437714
708 1 9.485351562 12.89419556 31.19282341
709 1 10.9777832 14.11001587 34.21858215
710 1 10.15332031 14.12246704 33.08996964
711 1 12.58075047 10.42410278 34.94290161
712 1 11.77416992 8.933258057 32.64428329
713 1 9.859710693 10.45968628 31.22151756
714 1 9.491119385 12.89590454 32.64376831
715 1 11.17013454 12.87219238 34.9446907
716 1 9.866210938 10.46392822 32.61922455
717 1 9.677459717 11.70346069 33.34388351
718 1 10.53198242 11.69134521 34.51600647