ITEM: TIMESTEP
0
ITEM: NUMBER OF ATOMS
512
ITEM: BOX BOUNDS xy xz yz pp pp pp
0.0000000000000000e+00 2.2559999999999999e+01 0.0000000000000000e+00
0.0000000000000000e+00 2.2559999999999999e+01 0.0000000000000000e+00
0.0000000000000000e+00 2.2559999999999999e+01 0.0000000000000000e+00
ITEM: ATOMS id element x y z
25 Na 4.74599 4.86728 2.61074
129 Na 2.6455 0.808356 3.85582
147 Na 1.46816 5.14033 1.42812
251 Na 0.473535 0.990513 0.884524
271 Cl 3.0147 2.77014 2.02544
365 Cl 5.53006 4.88469 5.23233
385 Na 5.91603 2.21273 5.1094
470 Cl 6.56998 2.58806 2.51677
247 Cl 7.01177 6.25638 2.16784
408 Cl 7.35805 2.00818 7.29209
293 Cl 0.136411 7.08592 0.105699
384 Cl 1.94932 5.96792 3.89415
491 Na 2.81503 4.46858 5.86365
507 Na 6.43109 7.30869 4.72212
85 Cl 3.38904 1.78367 6.1971
88 Cl 0.102756 3.4698 6.27045
241 Na 0.34663 0.703406 6.44413
403 Na 4.9444 0.439058 1.47634
168 Cl 3.68388 5.95675 0.276595
487 Cl 9.91098 2.77813 4.51304
8 Cl 12.8079 5.49898 5.76772
45 Cl 9.75429 3.19826 0.759257
196 Na 10.1923 4.86681 6.06893
228 Na 11.4717 5.45274 0.231785
239 Cl 10.854 5.96077 2.70241
254 Cl 13.8867 6.66693 0.406013
265 Na 11.7271 2.33916 2.50501
433 Na 13.4427 5.4441 3.09035
440 Cl 13.2928 3.23767 0.541447
455 Cl 13.9217 1.5178 3.90137
41 Na 8.58669 0.713821 3.03436
472 Cl 12.5753 0.181553 6.93712
243 Na 13.5891 2.88132 6.37284
331 Na 10.0784 1.14151 6.70664
499 Na 8.63308 4.37064 2.81895
156 Na 22.0477 3.3618 3.6498
191 Cl 22.5163 0.838673 3.49614
464 Cl 22.174 3.43291 0.976175
344 Cl 17.105 2.12329 1.22945
430 Cl 15.971 4.97837 3.477
33 Na 18.5848 5.46594 4.07821
48 Cl 19.3483 2.84715 3.89182
78 Cl 20.1576 0.194363 0.584499
111 Cl 20.3261 0.0397361 6.18457
115 Na 19.7399 0.171386 3.49873
169 Na 20.389 5.97886 0.680606
193 Na 20.0222 2.68794 6.54675
227 Na 15.5704 0.182286 2.01198
278 Cl 21.0445 5.73669 3.33109
281 Na 16.6828 2.44989 3.97209
329 Na 16.2248 7.41166 2.06187
387 Na 22.056 6.10295 5.90889
501 Cl 17.8 6.08273 0.380593
262 Cl 19.3251 5.61338 6.70334
245 Cl 16.2889 2.34281 6.56879
379 Na 15.4845 6.85632 5.66576
139 Na 19.6062 2.81971 0.91819
506 Na 15.8233 4.31148 0.464084
418 Na 2.44173 8.56164 4.34287
485 Cl 4.81834 8.86483 3.36773
99 Na 2.17385 12.7048 6.15495
170 Na 5.20744 10.8976 5.06509
187 Na 5.81602 14.124 3.09362
334 Cl 5.20568 12.6904 0.964769
448 Cl 3.74033 12.9213 4.07035
450 Na 2.51646 12.2258 1.81625
494 Cl 1.23181 9.87577 2.17266
502 Cl 6.6675 11.8769 7.35246
444 Na 5.88314 10.1692 1.42817
38 Cl 0.0211471 13.3879 4.47727
39 Cl 2.98673 10.1766 6.34884
21 Cl 6.23072 8.35884 7.15965
158 Cl 9.22202 7.55788 5.35441
177 Na 8.84655 8.04322 2.38136
36 Na 7.52833 13.7281 0.151423
95 Cl 14.6608 12.5488 6.92178
132 Na 10.1956 11.8478 3.30915
172 Na 8.43385 10.0444 6.32045
215 Cl 8.49387 14.3357 3.01673
248 Cl 12.9844 11.8573 3.27499
298 Na 11.6706 8.05564 4.34497
303 Cl 10.8341 9.5402 2.08397
445 Cl 14.1744 8.14733 3.60551
488 Cl 10.3991 12.6946 5.94761
495 Cl 12.4985 9.22312 6.6032
234 Na 14.4765 10.428 5.01066
244 Na 13.356 9.34017 1.30097
26 Na 11.2879 14.6033 1.17564
338 Na 10.5032 15.0121 7.41226
283 Na 7.94532 13.6865 5.73319
295 Cl 7.67074 10.8822 3.87798
353 Na 12.8685 13.7064 5.11818
480 Cl 7.90208 9.0605 0.0271265
117 Cl 13.6524 14.0109 0.447215
462 Cl 17.7648 7.94599 4.22849
346 Na 15.1984 12.2893 1.57827
46 Cl 19.5285 11.1838 5.15964
47 Cl 22.2095 8.73917 5.17691
68 Na 21.7987 11.028 3.78441
72 Cl 16.3463 9.14565 7.13603
79 Cl 18.7912 15.0013 5.61607
213 Cl 16.1916 9.83944 0.871701
269 Cl 19.9896 8.67273 1.37132
300 Na 18.3001 10.1597 2.86778
397 Cl 16.4758 12.1258 3.9338
401 Na 17.2223 11.4882 6.4815
458 Na 19.575 8.68738 6.05489
489 Na 22.1606 7.88901 2.66249
75 Na 18.6599 13.626 3.46546
223 Cl 20.1052 12.0827 1.89845
356 Na 20.5399 12.8158 6.93415
116 Na 16.0351 14.8774 6.21282
210 Na 21.8595 13.9733 1.64753
454 Cl 17.2182 14.6691 1.39426
297 Na 2.70515 15.5957 3.75574
2 Na 1.78725 18.5906 5.74185
30 Cl 5.03733 16.6186 2.68975
82 Na 6.5775 17.2098 4.7516
113 Na 6.92309 20.586 5.23402
130 Na 3.77585 21.4793 6.67896
151 Cl 2.46983 21.6978 1.68625
181 Cl 2.01547 15.8519 6.19978
214 Cl 1.57433 21.1885 5.43349
320 Cl 5.20378 22.1829 4.09591
363 Na 0.491874 20.7234 3.15593
370 Na 3.78496 16.5545 0.399242
453 Cl 1.69962 18.3099 3.09516
368 Cl 4.76284 18.9465 5.63162
399 Cl 7.49273 22.3086 0.651091
435 Na 6.86167 18.2084 0.77748
35 Na 4.04158 16.9268 7.4057
446 Cl 5.78424 15.1866 6.1029
6 Cl 1.70269 15.11 1.4432
415 Cl 4.56836 19.2581 0.0942383
427 Na 4.09881 19.5166 2.86942
74 Na 12.8229 22.0451 0.348059
148 Na 12.2627 21.5268 4.27764
424 Cl 7.68759 18.9866 3.12432
16 Cl 10.9146 22.4384 2.08583
29 Cl 11.194 19.0045 3.95552
69 Cl 9.21605 21.7568 5.23782
98 Na 13.1232 17.5456 5.10041
134 Cl 13.0634 15.7613 6.95167
162 Na 12.4722 18.5615 1.70513
167 Cl 8.98468 16.8198 6.04815
200 Cl 14.145 19.8149 5.86666
236 Na 9.73619 16.7746 3.37037
258 Na 9.93975 19.4042 6.28067
272 Cl 12.2938 15.6776 3.40414
407 Cl 10.2897 17.0203 0.689908
463 Cl 14.1238 20.5912 2.29965
3 Na 14.8827 15.7528 2.21201
310 Cl 14.308 17.4122 0.297509
321 Na 9.47941 20.2254 1.48952
96 Cl 17.1032 22.1554 4.10145
212 Na 15.1682 22.4595 6.03478
52 Na 22.4082 17.6091 1.31124
299 Na 18.908 16.6825 0.443709
136 Cl 20.6289 20.0481 3.0629
381 Cl 15.6526 16.7979 4.46781
1 Na 20.4952 20.0368 5.67746
10 Na 19.2613 20.2525 0.865098
203 Na 18.409 17.2336 3.93544
256 Cl 20.5452 16.1142 2.65795
302 Cl 18.0055 19.0044 5.96191
347 Na 21.6391 15.7364 5.17819
396 Na 16.1044 19.5989 3.89337
436 Na 18.2996 21.5262 7.44636
479 Cl 17.4973 18.6206 1.79158
422 Cl 21.8421 18.0193 6.30712
83 Na 15.8712 18.4049 7.47235
89 Na 4.69524 2.29394 8.63515
143 Cl 0.864384 6.72635 8.07775
80 Cl 3.09511 2.40174 10.7577
103 Cl 6.62537 3.09499 10.571
160 Cl 4.87202 1.7995 14.0549
208 Cl 0.477952 0.703105 9.05474
209 Na 0.844793 2.10572 11.9892
229 Cl 2.51678 6.26178 12.338
306 Na 6.1292 5.60109 7.81234
311 Cl 1.23772 3.45109 14.542
359 Cl 6.44663 5.23526 13.8281
361 Na 3.04537 6.89795 9.57143
471 Cl 3.6939 4.70095 8.28853
9 Na 4.3292 4.42669 11.7747
405 Cl 5.64264 6.64562 10.4044
73 Na 0.0544629 5.38007 13.183
140 Na 2.58482 7.26011 14.8941
12 Na 7.24284 0.0093357 9.02882
314 Na 4.45472 0.332652 11.7779
81 Na 1.27705 3.39481 8.84249
266 Na 7.18935 2.23993 13.0306
492 Na 8.96189 3.1047 9.23851
70 Cl 8.75437 5.73164 8.54949
141 Cl 14.6458 2.59877 9.76089
146 Na 11.2555 5.85333 12.1854
182 Cl 9.50926 3.66793 12.7301
188 Na 7.73008 5.31817 11.4226
222 Cl 13.7127 4.99781 12.1016
226 Na 12.4665 1.08633 9.67623
288 Cl 9.81116 0.441146 9.59198
309 Cl 11.3575 3.30961 8.11556
434 Na 13.2802 4.82659 9.23445
468 Na 11.9824 3.00301 14.6368
217 Na 14.7206 2.30061 12.5181
414 Cl 12.2526 7.2168 9.86976
56 Cl 12.2911 1.38597 12.7222
273 Na 9.88635 0.61393 12.3363
32 Cl 8.38105 0.450137 14.8801
235 Na 14.4088 5.6762 14.5995
351 Cl 22.2202 4.17906 10.7615
40 Cl 15.5619 5.90851 8.2842
60 Na 16.7675 1.11287 9.75244
44 Na 16.2062 5.2178 11.0931
59 Na 19.1861 6.60353 12.7004
86 Cl 18.7302 5.51643 10.2538
153 Na 21.263 6.3799 9.5925
240 Cl 20.1079 4.47987 14.0007
362 Na 17.4858 4.09628 8.10243
375 Cl 19.1092 2.04646 8.9121
382 Cl 16.7042 6.10505 13.5138
386 Na 19.7917 3.24608 11.2896
429 Cl 17.2766 2.73046 12.1835
135 Cl 20.97 1.15507 12.6032
452 Na 18.4452 0.484527 13.2526
419 Na 17.5682 3.86144 14.7101
49 Na 0.654879 9.39173 7.65794
166 Cl 0.192762 12.0382 8.05351
14 Cl 2.55954 9.67506 9.89061
43 Na 2.15653 11.5695 14.517
101 Cl 6.46638 10.2756 10.8634
123 Na 0.973661 14.7644 8.26416
131 Na 1.39903 8.64276 11.9535
201 Na 5.78362 14.1192 8.60007
252 Na 4.70006 10.2221 8.431
276 Na 4.39308 11.5644 11.8398
282 Na 5.90551 8.06627 12.5824
322 Na 7.44502 11.7121 13.5143
392 Cl 3.63033 9.31965 13.3138
404 Na 4.68196 14.6086 14.1812
406 Cl 2.4468 13.3859 12.4103
478 Cl 3.26659 13.4872 8.95632
496 Cl 4.94168 12.1417 14.6857
110 Cl 6.15471 13.6633 11.6056
71 Cl 0.212654 10.8843 12.6889
307 Na 1.29465 12.0254 10.4075
270 Cl 7.17996 9.10031 14.7129
372 Na 7.60768 8.26371 9.50089
178 Na 11.8851 11.4139 7.92969
318 Cl 11.7129 13.6556 9.33599
301 Cl 8.97522 7.52559 11.8262
466 Na 10.7015 7.56758 7.79231
107 Na 8.30439 12.0936 9.84943
24 Cl 13.3689 10.5803 10.2226
100 Na 14.2694 8.52537 8.55628
102 Cl 9.61418 9.92725 8.7193
108 Na 14.0939 8.29424 11.8659
176 Cl 8.38138 14.7623 9.01844
225 Na 12.3904 10.9175 13.5959
230 Cl 14.9815 10.44 13.4483
233 Na 10.8267 9.42447 10.9925
284 Na 9.52738 8.08075 14.3577
423 Cl 11.9512 8.37891 13.2671
438 Cl 9.94234 11.7778 12.3677
330 Na 14.3577 13.2692 9.49968
163 Na 11.4159 13.9394 11.8709
224 Cl 12.8605 13.3458 14.3924
304 Cl 21.5197 7.64545 12.0367
164 Na 21.1061 9.32177 14.1157
289 Na 15.2605 13.2694 13.2655
11 Na 20.4881 10.6918 10.466
54 Cl 16.3999 8.2398 10.7879
206 Cl 18.7871 10.5515 12.7109
253 Cl 18.6375 11.8281 8.64019
259 Na 16.9019 10.7175 10.4635
290 Na 17.9068 7.52446 8.69546
367 Cl 16.5738 13.2173 10.8866
376 Cl 20.3851 8.7169 8.60716
411 Na 17.0111 8.77 13.7376
476 Na 22.3008 13.5877 13.4565
114 Na 18.649 14.3396 9.42422
138 Na 18.5568 13.1777 12.7215
504 Cl 20.7821 13.3523 11.2218
461 Cl 19.9609 13.9792 14.8091
119 Cl 1.92254 22.42 12.916
398 Cl 4.66387 22.1822 9.04377
442 Na 3.47964 15.3598 11.0189
493 Cl 7.00921 16.2853 13.964
15 Cl 3.72313 19.8573 11.6707
50 Na 1.28915 18.2191 12.2545
94 Cl 1.28809 16.5852 10.1307
126 Cl 2.59509 19.3588 8.26588
161 Na 1.96838 21.4161 10.1802
183 Cl 5.40149 16.8022 9.67448
204 Na 2.99364 20.3796 14.1715
315 Na 5.4295 18.0665 12.5073
340 Na 5.11117 19.557 9.43283
343 Cl 0.692446 19.2827 14.8972
437 Cl 3.37431 16.8194 13.5171
456 Cl 7.18807 22.3043 11.7192
428 Na 0.0224118 18.7581 8.77921
133 Cl 5.4589 19.8963 14.8436
23 Cl 7.52043 19.9956 7.97217
477 Cl 10.919 18.6995 8.73477
92 Na 13.1378 21.4948 13.3998
157 Cl 13.849 15.2684 11.6753
402 Na 12.7187 16.0923 14.0757
483 Na 7.89436 15.6932 11.4972
509 Cl 10.6853 16.5155 11.8126
34 Na 7.65626 20.5362 13.5497
190 Cl 7.76534 18.6015 11.4167
355 Na 8.10608 17.4485 8.66054
37 Cl 13.4634 18.7663 13.8872
61 Cl 13.0385 21.259 10.7492
125 Cl 14.4294 18.3237 9.76549
175 Cl 10.3458 20.4665 12.9832
220 Na 12.2631 18.8215 11.5067
443 Na 12.6428 16.3929 9.47922
451 Na 9.43727 20.3576 10.2644
274 Na 13.2108 20.4296 8.28805
66 Na 9.49506 17.7075 13.8223
53 Cl 15.9104 21.4037 8.39704
358 Cl 20.0876 19.8669 8.55147
165 Cl 18.281 21.7855 10.9086
192 Cl 15.755 22.1777 13.4528
122 Na 21.5386 15.7597 10.8102
317 Cl 16.8069 16.0391 8.37037
371 Na 19.311 17.2403 7.70059
64 Cl 22.2032 20.0216 11.2121
5 Cl 16.9959 15.3329 13.4473
121 Na 16.2593 16.4991 10.9628
218 Na 20.7145 22.4709 9.91021
231 Cl 19.2338 16.7975 10.7174
275 Na 19.4037 19.4424 11.1059
286 Cl 21.0101 15.1918 8.16776
316 Na 19.2537 16.6757 13.3891
323 Na 17.3194 20.1533 14.6194
412 Na 15.7435 20.5291 11.0082
469 Cl 21.9313 16.4626 13.3903
474 Na 22.0812 21.4596 13.6304
109 Cl 19.7563 20.8107 14.6402
91 Na 15.7429 17.4013 14.367
174 Cl 17.0563 18.7317 12.4517
31 Cl 1.6336 3.79098 20.0925
84 Na 3.3888 3.21117 21.9742
354 Na 6.18614 6.74911 22.2438
42 Na 4.86689 3.91926 15.6388
184 Cl 0.192233 6.71812 15.6821
324 Na 5.76577 0.0842324 15.7721
13 Cl 4.47978 0.833528 21.3292
18 Na 2.30216 1.2721 15.2496
93 Cl 4.06203 6.1492 16.7413
179 Na 3.90528 5.54611 19.4837
279 Cl 0.605451 0.118355 20.9693
292 Na 1.40566 4.36257 17.1537
296 Cl 6.8101 7.02625 19.6768
325 Cl 2.00669 7.31489 19.5089
326 Cl 5.74291 4.0318 20.9319
349 Cl 7.06643 3.49997 17.1432
389 Cl 3.57563 2.52824 17.553
467 Na 5.71211 1.96478 19.1603
4 Na 7.34668 2.42802 22.4958
417 Na 6.45845 7.12443 17.0208
249 Na 2.5276 0.631472 19.181
87 Cl 13.2486 4.16226 19.4131
159 Cl 14.714 3.10836 15.3277
171 Na 8.63998 1.22667 17.538
185 Na 10.9205 2.91661 20.949
195 Na 11.3547 5.23905 17.9111
221 Cl 11.9963 0.61397 20.623
246 Cl 9.07622 6.8932 16.8779
257 Na 12.3068 1.05212 17.9463
280 Cl 10.1337 5.42657 20.4977
285 Cl 11.6806 5.57765 15.1236
333 Cl 10.6569 2.84524 16.9329
339 Na 13.9629 6.68798 20.2827
366 Cl 8.47235 1.97946 20.122
380 Na 7.87938 4.57634 19.4515
393 Na 14.3636 2.05407 20.8785
291 Na 8.84911 4.51809 15.3712
432 Cl 14.9251 1.0479 18.4182
390 Cl 19.6949 0.80495 19.4394
332 Na 20.2951 5.92311 16.4389
120 Cl 20.1617 4.24804 21.0438
473 Na 21.8594 2.40405 20.1027
498 Na 22.3239 5.88682 20.2517
510 Cl 21.3947 3.71482 17.634
350 Cl 16.7105 3.33559 20.4004
118 Cl 17.6077 4.96707 17.3107
242 Na 18.1345 5.65005 20.1756
388 Na 15.3965 3.62225 17.9599
391 Cl 18.3456 1.50905 15.9029
457 Na 18.897 2.93963 18.3479
481 Na 21.2685 2.41979 15.1882
142 Cl 20.2917 7.24467 18.9063
360 Cl 22.4501 0.277243 16.2489
20 Na 17.8249 0.863595 21.4414
508 Na 15.5862 0.483047 15.9595
198 Cl 0.777261 12.4036 22.3337
124 Na 4.7746 9.77593 15.5965
7 Cl 5.94431 9.77094 17.8465
128 Cl 3.36015 12.2401 18.5665
152 Cl 0.0474979 10.2441 19.6664
364 Na 5.71082 12.5181 17.4186
377 Na 1.12805 14.9307 21.4345
413 Cl 4.38483 9.79066 21.5569
416 Cl 2.31643 9.65218 16.4547
426 Na 0.250663 8.40735 17.698
460 Na 6.75987 9.97798 20.338
475 Na 3.32461 9.56859 19.0028
484 Na 2.40686 8.27557 22.2558
490 Na 4.08049 12.5914 21.0834
503 Cl 6.66432 12.7579 20.0823
449 Na 0.913386 11.8511 17.7111
216 Cl 1.23916 13.9181 15.7557
465 Na 2.77002 14.8256 17.9794
238 Cl 0.354017 14.3431 19.0671
149 Cl 12.7703 10.3137 21.3901
137 Na 10.7043 12.9426 15.7809
22 Cl 11.5256 13.1865 18.238
27 Na 13.0795 13.0183 20.6365
51 Na 8.49178 10.1032 16.9391
197 Cl 9.39393 10.2979 19.4652
250 Na 12.3589 7.99938 16.043
261 Cl 8.14285 12.587 16.1267
277 Cl 10.9959 10.2329 15.9482
337 Na 9.23811 13.0432 19.5299
348 Na 9.51137 7.71754 19.5467
400 Cl 12.1565 7.74461 18.6529
425 Na 10.231 10.4007 22.1818
431 Cl 14.9203 7.88282 15.9761
439 Cl 9.97114 13.0032 22.1369
459 Na 11.9985 10.439 18.6465
328 Cl 14.4258 11.4474 18.4141
211 Na 14.2679 13.9668 17.2642
127 Cl 16.3941 7.71612 20.0084
441 Na 15.3375 10.1216 20.6606
394 Na 18.1846 8.66521 21.9578
383 Cl 19.112 7.95315 15.163
312 Cl 21.4868 10.6579 16.3473
345 Na 19.0615 11.6091 15.8216
486 Cl 16.5219 12.7771 15.6477
112 Cl 16.2171 12.6137 21.2034
327 Cl 16.6629 14.8931 18.3934
19 Na 21.3914 14.5114 16.9513
28 Na 17.0747 12.3207 18.7267
106 Na 21.823 10.0449 22.4177
150 Cl 17.6496 10.1077 17.5029
154 Na 15.3253 10.4966 16.1654
173 Cl 19.6438 13.0114 18.3034
260 Na 18.4897 12.7359 22.4951
305 Na 17.2533 7.58086 17.2894
319 Cl 19.4169 10.7726 21.0426
378 Na 21.4141 12.5814 20.3865
447 Cl 20.4303 14.7037 21.8049
482 Na 20.0153 9.89376 18.6408
342 Cl 6.46214 22.0762 18.3048
497 Na 5.81969 21.0502 21.0237
500 Na 2.1815 20.4705 21.9571
512 Cl 6.84376 16.0783 22.0037
308 Na 6.16558 15.5199 19.5385
67 Na 4.74993 20.2067 17.6412
77 Cl 1.95648 17.4941 17.7336
104 Cl 5.294 15.1619 16.8735
145 Na 6.03613 17.6386 16.041
186 Na 3.54327 17.9227 19.8954
194 Na 1.38363 16.6588 15.2608
207 Cl 3.23717 21.784 16.4257
264 Cl 3.66995 15.2892 20.544
335 Cl 1.48372 17.7534 21.6417
341 Cl 3.00035 20.4902 19.5089
395 Na 1.0452 20.5055 17.339
374 Cl 5.93523 18.1818 18.6306
65 Na 10.2633 21.1035 15.6931
199 Cl 10.0669 21.6972 18.2573
336 Cl 12.7831 21.8172 16.0255
232 Cl 10.4556 15.67 15.3475
237 Cl 8.73281 15.5255 18.7639
421 Cl 14.1197 16.6134 16.3763
55 Cl 14.2746 19.3394 19.5287
57 Na 11.3889 15.9806 17.8929
76 Na 8.04997 15.1889 16.2347
97 Na 8.4451 19.4761 18.4578
105 Na 13.7545 19.3931 16.6308
144 Cl 8.08557 19.6492 21.2029
202 Na 9.32974 22.1042 21.0582
205 Cl 10.8786 18.2793 18.9869
219 Na 12.5039 17.6428 21.0343
267 Na 11.998 20.6012 19.646
352 Cl 8.55129 19.063 15.8274
357 Cl 13.45 15.5659 19.7175
420 Na 9.07004 17.1875 20.8836
511 Cl 11.4854 19.9921 22.1541
294 Cl 15.2763 22.277 21.9265
313 Na 20.8648 21.3709 20.7264
268 Na 19.0114 15.2401 19.6308
369 Na 20.7028 18.6308 15.9887
373 Cl 21.1713 20.0251 18.3557
90 Na 15.4734 17.1599 18.7049
180 Na 15.5649 15.2422 21.5246
17 Na 18.9962 18.7506 19.3803
58 Na 15.9369 19.3326 22.2158
62 Cl 16.2343 20.4904 16.8904
63 Cl 20.4215 16.7472 18.0094
155 Na 17.8416 15.0636 16.1006
189 Cl 18.1565 17.6923 15.6349
255 Cl 18.0398 20.6825 20.9009
263 Cl 17.4043 17.1353 20.7523
287 Cl 20.7615 18.6715 21.8276
409 Na 19.9823 22.1698 17.0484
410 Na 22.3765 17.6791 19.562
505 Na 15.949 21.3867 19.3459
ITEM: TIMESTEP
2500
ITEM: NUMBER OF ATOMS
512
ITEM: BOX BOUNDS xy xz yz pp pp pp
-1.5925835533526111e-02 2.2575925835533383e+01 0.0000000000000000e+00
-1.5925835533526111e-02 2.2575925835533383e+01 0.0000000000000000e+00
-1.5925835533526111e-02 2.2575925835533383e+01 0.0000000000000000e+00
ITEM: ATOMS id element x y z
25 Na 4.51767 4.38731 1.80775
129 Na 2.20675 1.17935 3.65098
271 Cl 2.24052 3.75988 2.94605
365 Cl 5.81274 4.637 4.85111
385 Na 5.76882 1.71239 4.86717
470 Cl 5.95955 1.98656 2.2802
408 Cl 7.36504 1.53197 6.97014
384 Cl 2.63755 6.88657 4.92039
491 Na 3.27753 4.31364 5.40866
507 Na 5.9145 7.13596 3.98888
85 Cl 3.35668 1.62532 6.22995
88 Cl 0.520498 3.89047 6.19906
241 Na 0.627874 1.27106 6.54036
168 Cl 3.34183 6.40878 0.475897
464 Cl 21.8934 3.51333 0.859172
387 Na 0.208003 6.39806 6.08468
489 Na 1.27583 7.33586 2.20463
306 Na 6.55157 5.1648 7.76531
191 Cl 22.393 0.998966 3.87441
147 Na 1.30286 4.9031 22.4739
293 Cl -0.0553813 7.30106 22.4035
247 Cl 6.92386 5.87941 1.67723
487 Cl 9.6676 2.70791 4.6087
8 Cl 12.9529 6.53481 6.53232
45 Cl 9.31696 3.26942 1.09454
196 Na 10.6999 4.98273 5.73802
228 Na 11.4019 5.44398 1.10214
239 Cl 12.1436 4.89375 3.52868
254 Cl 14.1979 6.29893 0.986548
265 Na 11.7426 2.08594 2.61039
433 Na 14.883 4.35974 2.46625
440 Cl 13.3597 3.2973 0.497135
455 Cl 14.0836 1.32683 3.93394
41 Na 8.3076 0.797321 2.91002
243 Na 13.8179 4.24746 5.68683
331 Na 9.65802 0.736541 6.6122
499 Na 8.18878 4.36225 3.22879
158 Cl 9.21114 7.01826 4.55693
298 Na 12.4319 7.92847 3.45859
212 Na 14.5361 0.264893 6.13132
251 Na 22.5009 0.892055 1.00922
156 Na 22.4628 3.69363 3.67483
344 Cl 16.953 2.59804 1.46828
430 Cl 16.201 5.13052 4.85327
33 Na 19.1667 5.88701 4.59292
48 Cl 19.608 3.10005 4.37421
78 Cl 20.0432 0.900434 0.228686
115 Na 19.7447 0.617535 4.38778
169 Na 20.3276 6.34352 1.15443
193 Na 20.5547 3.04578 7.33364
278 Cl 21.7445 6.2813 3.57419
281 Na 16.8976 2.72776 4.48126
501 Cl 17.9158 5.78761 1.7336
262 Cl 19.8083 6.11762 7.05966
245 Cl 15.7673 2.34521 6.85165
379 Na 15.8489 7.54488 6.09856
139 Na 19.3695 2.99734 1.57699
227 Na 15.3957 0.377203 2.16306
418 Na 2.70596 9.43171 4.15932
485 Cl 4.92267 9.0523 2.70995
99 Na 2.19577 12.6882 6.48073
170 Na 5.77216 10.689 4.9843
187 Na 5.95755 13.5749 3.84455
334 Cl 4.83719 13.3032 0.699859
448 Cl 3.77968 12.3573 4.13553
450 Na 2.56082 12.2946 1.72424
494 Cl 1.40686 10.0127 2.12197
444 Na 6.62099 11.1458 0.991322
38 Cl 22.2953 13.5276 3.77614
39 Cl 3.12257 10.0031 6.69247
21 Cl 5.96115 8.14832 6.74984
47 Cl -0.080853 9.65251 5.44228
354 Na 5.40945 7.70678 0.432817
177 Na 9.05072 8.19007 2.47292
36 Na 7.6519 14.5523 1.08968
132 Na 10.1198 11.9822 3.19869
172 Na 8.68725 9.25724 5.94478
215 Cl 8.57331 14.3258 3.53211
248 Cl 11.9745 10.7215 2.44003
303 Cl 11.0603 7.88129 1.04978
445 Cl 15.0964 9.14101 4.21858
488 Cl 10.8982 13.1881 5.43852
495 Cl 11.3357 9.30468 6.10617
234 Na 13.6487 11.3339 4.17419
244 Na 13.1546 9.00138 0.483346
283 Na 8.39752 13.6786 6.0096
295 Cl 7.74334 10.7516 3.57009
353 Na 12.9949 14.562 4.7261
480 Cl 7.88013 8.98823 0.251005
117 Cl 13.7667 13.9535 0.432552
95 Cl 14.558 12.5993 6.42315
26 Na 11.3609 14.5656 0.659748
439 Cl 8.8978 12.6811 0.53928
329 Na 16.7277 7.76184 1.95642
346 Na 15.0134 11.7571 0.801257
462 Cl 18.252 8.38456 4.72108
46 Cl 19.4631 11.8337 5.16405
68 Na 21.7246 10.9617 3.69536
79 Cl 19.2072 15.3428 5.37187
213 Cl 15.7638 9.33441 0.28415
269 Cl 19.1024 8.66084 0.869403
300 Na 17.8458 10.3426 2.66728
397 Cl 16.1946 12.2518 3.36153
401 Na 16.9965 10.8801 5.73546
458 Na 20.2559 9.35679 6.38847
75 Na 18.8239 13.7436 3.26876
223 Cl 19.9144 12.3206 1.47621
356 Na 20.0984 13.4206 7.3284
116 Na 16.465 14.1265 5.73093
210 Na 21.4913 14.105 1.41978
454 Cl 17.3922 14.7324 1.16475
446 Cl 5.25933 14.8742 5.96913
403 Na 4.87549 22.424 1.28038
297 Na 2.83975 14.9848 3.83769
2 Na 1.64379 18.6836 5.59214
30 Cl 5.6013 16.0658 3.01774
82 Na 6.49938 16.9951 5.34686
113 Na 7.26466 20.7955 5.00699
130 Na 3.53344 21.5683 6.34817
151 Cl 2.44337 0.257912 1.30345
181 Cl 1.55776 15.3927 6.13643
214 Cl 1.30292 21.3471 5.58635
320 Cl 4.66998 21.9262 4.18299
363 Na 0.484646 20.8958 3.14947
370 Na 4.37053 16.0661 0.701124
453 Cl 2.10102 18.5986 2.92068
368 Cl 4.7501 19.017 6.00768
435 Na 6.86893 18.5754 0.284378
6 Cl 1.89105 15.1275 1.42587
415 Cl 4.64809 18.9799 0.413065
427 Na 4.52996 19.2229 3.10472
424 Cl 7.54161 18.9846 3.08294
52 Na 0.373731 17.6635 1.34132
35 Na 3.29904 16.5185 7.66114
472 Cl 11.9105 21.8053 6.64217
399 Cl 7.77933 21.9761 0.986758
148 Na 12.5216 21.2046 3.80559
16 Cl 11.1672 22.4839 2.05027
29 Cl 11.1713 18.905 3.30441
69 Cl 9.21412 21.9355 4.75966
98 Na 13.3683 17.9642 4.06681
134 Cl 12.8138 16.7891 6.4371
162 Na 12.1613 17.9318 1.06756
167 Cl 8.87701 16.9101 6.26354
200 Cl 14.526 19.7961 5.53286
236 Na 9.62631 17.0836 3.34015
258 Na 10.1304 19.4507 6.54819
272 Cl 12.4158 15.8839 2.76191
407 Cl 9.62973 16.7733 0.83535
463 Cl 14.429 20.3902 1.92895
310 Cl 14.1158 17.2914 22.4551
321 Na 9.55609 20.366 1.76272
111 Cl 20.1626 0.0926689 6.80197
3 Na 15.0601 15.737 1.97427
96 Cl 17.0336 22.6985 4.11357
299 Na 18.9618 16.7342 0.554942
136 Cl 20.3567 20.6911 3.60079
381 Cl 15.4508 16.285 4.44685
1 Na 21.0455 20.3685 6.00132
10 Na 19.3584 20.9539 1.09885
203 Na 19.1448 17.5402 3.919
256 Cl 20.9871 16.5319 2.30082
302 Cl 17.744 18.8182 5.91523
347 Na 21.9312 15.5853 4.88111
396 Na 16.3471 19.8942 3.7293
436 Na 17.6715 21.2112 6.88884
479 Cl 17.9062 18.9303 1.83468
422 Cl 21.7431 17.8803 5.81183
83 Na 15.2933 17.8204 6.66176
371 Na 18.9914 17.5341 7.45828
89 Na 4.97308 2.32513 8.3195
143 Cl 0.859568 7.16045 8.67813
80 Cl 3.4342 2.69711 10.4365
103 Cl 6.78056 2.72213 9.83842
160 Cl 4.75543 1.47 14.2853
208 Cl 0.0122119 0.81512 9.03971
209 Na 0.743595 2.29466 11.3371
229 Cl 1.91233 5.8127 12.0528
311 Cl 1.09259 3.38833 15.2458
359 Cl 6.56443 4.25918 13.7853
471 Cl 4.0364 5.12023 7.71713
9 Na 4.22338 4.60126 11.7254
405 Cl 5.84521 6.29527 10.7145
140 Na 2.53503 7.30668 14.8209
314 Na 4.51585 0.367317 11.4549
81 Na 1.79687 4.67041 9.06213
18 Na 2.40253 1.42377 15.4039
266 Na 6.89507 1.95596 12.5361
73 Na 22.4309 5.38088 13.4055
361 Na 3.58068 7.62458 7.41054
282 Na 6.29485 7.77156 12.6319
492 Na 9.06969 2.62662 8.84029
70 Cl 8.98328 5.53427 8.03717
141 Cl 14.3469 2.28118 9.96843
146 Na 10.9093 5.74533 11.9992
182 Cl 9.56325 3.42114 11.3966
188 Na 7.65103 4.82158 10.995
222 Cl 13.7983 4.83822 12.3074
226 Na 12.7011 0.618462 9.09029
309 Cl 11.5361 3.31827 7.9331
434 Na 13.2816 4.71572 9.15373
217 Na 14.8054 2.06221 13.0227
414 Cl 12.5445 7.48669 10.0301
56 Cl 12.5784 1.07318 14.3697
273 Na 11.5466 1.65976 12.1204
235 Na 13.9007 6.93323 14.0318
466 Na 10.7274 7.48529 7.77339
284 Na 9.63154 7.91981 14.6242
288 Cl 10.1418 0.373702 9.84176
468 Na 12.719 4.04535 15.4711
32 Cl 8.21781 0.919612 14.9922
291 Na 8.91217 3.7622 14.8254
65 Na 10.4325 22.7016 15.3295
351 Cl 21.9946 4.00734 10.156
40 Cl 15.5847 6.29018 8.8954
60 Na 16.7773 1.36314 9.42851
44 Na 16.2083 5.53352 11.5939
59 Na 19.1303 6.781 13.019
86 Cl 18.8819 5.67238 10.7699
153 Na 21.0666 6.755 10.0829
240 Cl 19.9933 4.64433 13.9442
362 Na 16.912 4.27808 8.27471
375 Cl 18.9602 2.70615 8.84445
382 Cl 16.551 6.79925 13.8078
386 Na 19.9017 3.3256 11.3723
429 Cl 17.1068 2.96425 12.2597
135 Cl 20.8255 1.21035 12.9266
452 Na 18.3359 0.0467892 13.141
502 Cl 6.69809 11.9355 7.01015
49 Na 0.701568 9.79237 7.92655
166 Cl -0.273498 12.5574 7.85622
14 Cl 2.36394 10.4395 10.0816
43 Na 2.42369 11.5684 14.5901
101 Cl 6.34904 10.029 10.7858
123 Na 0.353307 15.1129 8.29584
131 Na 1.86964 8.43658 11.4766
201 Na 5.73529 14.0057 8.26493
252 Na 4.49629 10.7664 8.58081
276 Na 4.12626 11.3621 12.1216
392 Cl 3.94295 8.80271 13.1424
404 Na 4.59123 14.4556 14.3555
406 Cl 2.36823 13.5452 12.9582
478 Cl 3.14294 13.6165 8.85249
496 Cl 5.10248 11.7869 14.5193
110 Cl 5.97495 13.4436 11.2426
71 Cl 0.776593 10.6558 12.9337
307 Na 1.16132 12.7699 10.6856
270 Cl 7.37855 8.79779 14.8458
322 Na 7.43706 11.2643 13.6447
372 Na 7.27653 7.96821 9.34215
301 Cl 8.92507 7.34342 11.5465
178 Na 11.0383 11.5004 7.57908
318 Cl 11.9881 13.5535 8.57934
107 Na 7.87603 11.7326 9.61685
24 Cl 13.3609 10.8736 10.8788
100 Na 13.5511 8.85011 7.80257
102 Cl 9.17199 9.60866 8.51714
108 Na 14.8621 8.76084 10.9549
176 Cl 8.31622 14.2101 8.69184
225 Na 12.5271 10.6045 13.4366
233 Na 10.5461 9.19316 11.2658
423 Cl 11.8705 8.26261 13.2348
438 Cl 10.0935 11.6112 12.2292
163 Na 11.9809 13.2576 11.1993
224 Cl 12.975 12.8183 13.8803
230 Cl 15.0134 9.45301 13.9292
330 Na 14.864 12.598 9.37871
304 Cl 21.4324 7.82347 12.3461
72 Cl 16.1341 9.57317 7.8992
164 Na 21.8483 9.33255 14.4981
289 Na 15.6095 12.5605 13.2683
11 Na 21.4366 10.3334 11.192
54 Cl 17.4344 8.73081 11.3201
206 Cl 20.0109 11.0658 13.4208
253 Cl 17.7919 12.2813 8.14258
259 Na 18.499 10.8457 9.76236
290 Na 18.0092 7.64538 9.21571
367 Cl 17.428 12.4616 11.3675
376 Cl 20.5604 9.20638 8.96044
476 Na 22.1894 12.8734 13.7478
114 Na 18.1446 15.0111 9.53335
138 Na 19.3329 13.8673 12.6369
504 Cl 21.191 13.4194 11.2698
461 Cl 19.6092 14.4763 14.8538
411 Na 17.7897 9.57668 13.6971
456 Cl 7.19206 22.1268 11.9434
442 Na 3.76168 15.2247 10.699
12 Na 7.62457 22.1083 9.44219
119 Cl 1.89418 0.05592 12.606
398 Cl 4.84244 22.064 8.90459
493 Cl 6.82981 16.073 14.0348
15 Cl 3.90015 19.8163 11.2268
50 Na 1.92964 18.2128 11.6794
94 Cl 1.38515 16.3016 10.1831
126 Cl 2.00367 19.0907 8.0374
161 Na 2.1234 21.6523 9.90104
183 Cl 5.46298 16.7224 9.02185
204 Na 3.30355 20.6979 13.6991
315 Na 5.74421 17.8883 12.3434
340 Na 5.34568 19.4535 8.61314
343 Cl 1.40331 19.0194 14.1701
437 Cl 3.64336 16.5956 13.034
34 Na 7.83219 20.5849 14.3815
194 Na 1.75777 16.0962 14.4541
133 Cl 5.42978 19.2439 14.8269
483 Na 8.04695 14.9223 11.48
338 Na 10.6567 15.492 7.27444
23 Cl 7.71498 20.0928 7.78607
477 Cl 10.9877 18.5518 8.71753
92 Na 13.4348 20.6516 13.3313
157 Cl 14.5055 14.8015 10.9672
402 Na 12.2673 15.5553 13.7678
509 Cl 10.6342 15.7636 11.4513
190 Cl 8.17428 18.6394 11.4131
355 Na 8.63278 17.8384 9.09052
37 Cl 13.1354 18.1467 13.2298
61 Cl 12.9433 21.1259 11.0411
175 Cl 10.5881 20.6209 13.6517
220 Na 12.2883 17.7824 10.9
443 Na 13.8714 15.5254 8.5689
451 Na 10.0902 20.6945 11.1223
274 Na 13.3979 20.0103 8.13606
66 Na 9.02789 17.2665 13.5783
91 Na 14.9125 17.7497 14.9644
125 Cl 14.6617 18.3482 9.59297
428 Na 22.1215 18.3683 8.68518
53 Cl 15.3364 21.6828 8.34464
358 Cl 20.0475 19.8117 8.57749
165 Cl 18.1229 22.0636 10.7773
192 Cl 15.7368 22.1558 13.5539
122 Na 21.5726 16.0342 11.5493
317 Cl 16.4818 15.7805 7.87116
64 Cl 21.8891 18.7529 11.0731
5 Cl 15.837 15.245 14.2792
121 Na 15.9346 16.8886 11.6843
218 Na 20.2686 0.168236 9.56092
231 Cl 18.7992 16.4985 11.4568
275 Na 19.359 19.8511 11.3888
286 Cl 20.5692 15.7153 8.79637
316 Na 18.5419 17.0031 14.1652
323 Na 16.7704 20.4025 14.9471
412 Na 15.5706 20.5891 10.5506
469 Cl 21.8637 16.2416 14.1771
474 Na 22.1117 21.929 13.8309
109 Cl 19.6736 20.7012 14.3667
174 Cl 17.0133 18.9064 12.8687
84 Na 3.11618 1.44584 21.0356
42 Na 5.05571 3.85098 15.7754
31 Cl 1.392 3.90805 20.1822
324 Na 5.17786 0.28779 16.5462
13 Cl 5.17882 0.362982 21.1604
93 Cl 4.28773 6.29281 16.7495
179 Na 4.27762 5.99844 20.1218
292 Na 1.99915 5.17585 17.45
296 Cl 6.82802 6.76597 20.2075
325 Cl 1.77341 7.47937 19.4385
326 Cl 5.46485 3.41879 21.457
349 Cl 7.25472 3.82957 17.4653
389 Cl 3.61185 2.44961 17.9731
467 Na 6.0579 2.5619 19.3095
4 Na 7.46243 1.91929 22.6575
417 Na 6.96273 6.81549 17.4654
249 Na 0.869371 2.12574 18.2232
360 Cl 22.5515 0.32754 16.4135
285 Cl 10.7616 5.48749 14.6407
380 Na 7.63142 4.66549 22.0048
87 Cl 13.1018 3.84053 19.5826
159 Cl 15.1458 2.85173 15.9635
171 Na 8.63582 1.62123 17.7814
185 Na 11.2881 2.88337 21.8358
195 Na 9.54024 4.6475 18.5643
221 Cl 11.9287 0.611333 21.2224
246 Cl 9.46646 7.05015 17.5355
257 Na 12.1621 2.02055 18.4618
280 Cl 10.2167 5.31693 21.0137
333 Cl 10.5608 2.93463 16.6374
339 Na 13.4709 6.16951 20.9394
366 Cl 8.89696 2.44581 20.0696
393 Na 14.3978 1.91561 20.9882
388 Na 15.4597 4.88898 18.3263
250 Na 12.1404 7.43926 17.7105
431 Cl 14.5405 6.88777 16.8762
506 Na 17.01 4.37841 22.2348
419 Na 17.5688 3.58122 14.7611
184 Cl 0.185906 6.66911 15.7896
432 Cl 13.9277 0.637352 18.5116
390 Cl 19.8162 1.07901 19.2443
332 Na 20.5432 5.8636 16.2492
120 Cl 19.5286 4.70305 21.5095
473 Na 21.3477 2.61336 20.7731
498 Na 22.006 5.81161 19.9346
510 Cl 21.669 3.96725 18.0041
350 Cl 16.6163 3.15633 20.2207
118 Cl 17.9449 4.66014 17.2119
242 Na 18.8376 4.195 19.4867
391 Cl 18.5514 1.32727 15.4765
457 Na 17.0991 1.54934 17.4998
481 Na 20.9759 2.38942 15.6642
20 Na 18.0267 0.782781 21.4923
508 Na 14.3122 0.214146 16.0707
127 Cl 16.1467 6.57108 20.4013
305 Na 17.1411 7.14575 16.4346
198 Cl 0.552633 12.5303 22.4083
124 Na 4.85718 9.58538 15.8018
7 Cl 5.8028 9.37543 18.1199
128 Cl 3.38792 12.1216 18.45
364 Na 5.75741 12.1781 17.6238
413 Cl 4.3329 10.1699 21.3644
416 Cl 2.21559 9.60902 16.1711
426 Na 0.322217 8.67921 17.7185
460 Na 6.68089 10.0792 20.4767
475 Na 3.19394 9.69633 18.783
484 Na 1.95297 9.16514 22.1138
490 Na 3.70152 12.9229 20.9624
503 Cl 6.61062 12.6855 20.1408
449 Na 1.0876 12.0981 18.0193
216 Cl 1.3923 13.885 15.8191
465 Na 2.84427 14.9636 17.8243
238 Cl 0.28784 14.4782 19.1175
152 Cl 0.535565 10.3899 19.7547
377 Na 0.995431 15.199 21.4331
104 Cl 5.4758 14.6447 16.7261
425 Na 10.5854 10.3621 22.5098
400 Cl 12.3191 8.12817 20.0514
149 Cl 12.6017 11.1696 21.464
137 Na 10.9996 12.8101 15.7607
22 Cl 11.0173 12.8863 18.3985
27 Na 13.2381 13.2119 20.1272
51 Na 8.91758 9.86305 17.2935
197 Cl 9.36595 10.2525 19.9009
261 Cl 8.1924 11.8792 16.1658
277 Cl 11.3154 9.60311 16.2094
337 Na 9.14264 12.8806 20.1317
348 Na 9.70702 7.64651 20.8133
459 Na 11.5187 10.5175 18.7401
328 Cl 13.9753 11.2542 18.3005
211 Na 14.519 13.5694 16.6615
154 Na 14.5925 9.52026 16.3364
76 Na 8.06227 14.7138 15.9155
260 Na 18.3876 12.8216 22.1851
441 Na 15.0988 9.40982 20.1456
142 Cl 20.2368 7.04298 18.6508
394 Na 18.211 8.07109 21.0515
383 Cl 19.2069 8.33623 15.3695
312 Cl 21.6484 11.0311 16.5998