  16  16   0   0
  0.2041579E+02  0.7730373E-09  0.7730373E-09  0.7730373E-09  0.5000000E-15
  1.000000000000000E-004
  CAR 
 unknown system                          
     10.71173427     -6.99800530  301      5.87291689      1.00000000
     -6.998  0.0000E+00  0.0000E+00
     -6.939  0.0000E+00  0.0000E+00
     -6.880  0.0000E+00  0.0000E+00
     -6.821  0.0000E+00  0.0000E+00
     -6.762  0.0000E+00  0.0000E+00
     -6.703  0.0000E+00  0.0000E+00
     -6.644  0.0000E+00  0.0000E+00
     -6.585  0.0000E+00  0.0000E+00
     -6.526  0.0000E+00  0.0000E+00
     -6.467  0.2615E-14  0.1544E-15
     -6.408  0.3352E-09  0.1979E-10
     -6.349  0.2840E-05  0.1677E-06
     -6.290  0.1662E-02  0.9830E-04
     -6.231  0.7456E-01  0.4500E-02
     -6.172  0.3092E+00  0.2275E-01
     -6.113  0.1393E+00  0.3098E-01
     -6.053  0.1818E+00  0.4171E-01
     -5.994  0.1914E+01  0.1547E+00
     -5.935  0.3123E+01  0.3390E+00
     -5.876  0.1921E+01  0.4525E+00
     -5.817  0.2723E+00  0.4685E+00
     -5.758  0.2391E-01  0.4699E+00
     -5.699  0.8978E+00  0.5229E+00
     -5.640  0.3712E+01  0.7421E+00
     -5.581  0.1656E+01  0.8398E+00
     -5.522  0.7016E+00  0.8813E+00
     -5.463  0.6076E+01  0.1240E+01
     -5.404  0.7680E+01  0.1693E+01
     -5.345  0.2375E+01  0.1833E+01
     -5.286  0.1730E+00  0.1844E+01
     -5.227  0.1047E-01  0.1844E+01
     -5.168  0.4248E+00  0.1869E+01
     -5.109  0.1839E+01  0.1978E+01
     -5.050  0.9640E+00  0.2035E+01
     -4.991  0.2878E+01  0.2205E+01
     -4.932  0.8813E+01  0.2725E+01
     -4.873  0.9144E+01  0.3265E+01
     -4.814  0.4252E+01  0.3516E+01
     -4.755  0.3280E+00  0.3535E+01
     -4.696  0.2317E+01  0.3672E+01
     -4.637  0.7558E+01  0.4118E+01
     -4.578  0.3074E+01  0.4300E+01
     -4.519  0.2489E+01  0.4447E+01
     -4.460  0.4082E+01  0.4687E+01
     -4.401  0.7657E+01  0.5140E+01
     -4.342  0.2333E+01  0.5277E+01
     -4.283  0.8957E-01  0.5283E+01
     -4.223  0.9158E+00  0.5337E+01
     -4.164  0.3723E+01  0.5556E+01
     -4.105  0.3149E+01  0.5742E+01
     -4.046  0.1192E+02  0.6446E+01
     -3.987  0.1916E+02  0.7577E+01
     -3.928  0.6102E+01  0.7937E+01
     -3.869  0.3230E+01  0.8128E+01
     -3.810  0.9119E+01  0.8666E+01
     -3.751  0.4865E+01  0.8953E+01
     -3.692  0.1446E+01  0.9039E+01
     -3.633  0.6901E+01  0.9446E+01
     -3.574  0.5436E+01  0.9767E+01
     -3.515  0.6975E+01  0.1018E+02
     -3.456  0.4789E+01  0.1046E+02
     -3.397  0.4483E+01  0.1073E+02
     -3.338  0.1177E+02  0.1142E+02
     -3.279  0.8189E+01  0.1190E+02
     -3.220  0.1184E+01  0.1197E+02
     -3.161  0.2817E+01  0.1214E+02
     -3.102  0.7514E+01  0.1258E+02
     -3.043  0.2332E+01  0.1272E+02
     -2.984  0.2974E+01  0.1290E+02
     -2.925  0.7510E+01  0.1334E+02
     -2.866  0.2538E+01  0.1349E+02
     -2.807  0.7810E+01  0.1395E+02
     -2.748  0.1433E+02  0.1480E+02
     -2.689  0.2855E+01  0.1497E+02
     -2.630  0.7436E-01  0.1497E+02
     -2.571  0.9423E+00  0.1503E+02
     -2.512  0.3727E+01  0.1525E+02
     -2.453  0.1594E+01  0.1534E+02
     -2.393  0.6674E-01  0.1534E+02
     -2.334  0.2244E-03  0.1534E+02
     -2.275  0.2015E-04  0.1534E+02
     -2.216  0.1055E-01  0.1534E+02
     -2.157  0.4579E+00  0.1537E+02
     -2.098  0.2695E+01  0.1553E+02
     -2.039  0.7297E+01  0.1596E+02
     -1.980  0.7063E+01  0.1638E+02
     -1.921  0.3986E+01  0.1661E+02
     -1.862  0.7113E+00  0.1666E+02
     -1.803  0.1313E-01  0.1666E+02
     -1.744  0.1902E-04  0.1666E+02
     -1.685  0.8757E-04  0.1666E+02
     -1.626  0.3652E-01  0.1666E+02
     -1.567  0.1201E+01  0.1673E+02
     -1.508  0.3780E+01  0.1695E+02
     -1.449  0.1292E+01  0.1703E+02
     -1.390  0.4339E-01  0.1703E+02
     -1.331  0.2622E+00  0.1705E+02
     -1.272  0.6582E+01  0.1744E+02
     -1.213  0.1672E+02  0.1842E+02
     -1.154  0.1001E+02  0.1901E+02
     -1.095  0.1086E+02  0.1965E+02
     -1.036  0.1315E+02  0.2043E+02
     -0.977  0.9867E+01  0.2101E+02
     -0.918  0.1098E+02  0.2166E+02
     -0.859  0.1011E+02  0.2226E+02
     -0.800  0.2452E+01  0.2240E+02
     -0.741  0.1708E+01  0.2250E+02
     -0.682  0.1149E+02  0.2318E+02
     -0.622  0.1088E+02  0.2383E+02
     -0.563  0.1357E+01  0.2391E+02
     -0.504  0.1781E-01  0.2391E+02
     -0.445  0.2329E-03  0.2391E+02
     -0.386  0.8246E-01  0.2391E+02
     -0.327  0.2575E+01  0.2406E+02
     -0.268  0.8591E+01  0.2457E+02
     -0.209  0.7004E+01  0.2498E+02
     -0.150  0.1415E+02  0.2582E+02
     -0.091  0.1055E+02  0.2644E+02
     -0.032  0.2324E+01  0.2658E+02
      0.027  0.2443E+00  0.2659E+02
      0.086  0.1437E-01  0.2659E+02
      0.145  0.6549E+00  0.2663E+02
      0.204  0.3512E+01  0.2684E+02
      0.263  0.2052E+01  0.2696E+02
      0.322  0.2976E+00  0.2698E+02
      0.381  0.3579E+01  0.2719E+02
      0.440  0.7300E+01  0.2762E+02
      0.499  0.1617E+01  0.2772E+02
      0.558  0.3336E-01  0.2772E+02
      0.617  0.3727E-01  0.2772E+02
      0.676  0.1722E+01  0.2782E+02
      0.735  0.7378E+01  0.2826E+02
      0.794  0.3412E+01  0.2846E+02
      0.853  0.1555E+00  0.2847E+02
      0.912  0.1463E-02  0.2847E+02
      0.971  0.2039E+00  0.2848E+02
      1.030  0.3827E+01  0.2871E+02
      1.089  0.7189E+01  0.2913E+02
      1.148  0.1457E+01  0.2922E+02
      1.208  0.2717E-01  0.2922E+02
      1.267  0.4646E-01  0.2922E+02
      1.326  0.1921E+01  0.2933E+02
      1.385  0.8269E+01  0.2982E+02
      1.444  0.7800E+01  0.3028E+02
      1.503  0.8441E+01  0.3078E+02
      1.562  0.5004E+01  0.3108E+02
      1.621  0.4198E+01  0.3133E+02
      1.680  0.1697E+02  0.3233E+02
      1.739  0.1559E+02  0.3325E+02
      1.798  0.5674E+01  0.3358E+02
      1.857  0.2868E+01  0.3375E+02
      1.916  0.4010E+01  0.3399E+02
      1.975  0.4083E+01  0.3423E+02
      2.034  0.1880E+01  0.3434E+02
      2.093  0.1240E+01  0.3441E+02
      2.152  0.6313E+01  0.3479E+02
      2.211  0.1073E+02  0.3542E+02
      2.270  0.1893E+02  0.3654E+02
      2.329  0.2283E+02  0.3789E+02
      2.388  0.2503E+02  0.3936E+02
      2.447  0.1603E+02  0.4031E+02
      2.506  0.3623E+01  0.4052E+02
      2.565  0.1384E+00  0.4053E+02
      2.624  0.2305E-01  0.4053E+02
      2.683  0.1821E+01  0.4064E+02
      2.742  0.1300E+02  0.4141E+02
      2.801  0.1039E+02  0.4202E+02
      2.860  0.2970E+01  0.4220E+02
      2.919  0.6956E+01  0.4261E+02
      2.978  0.2205E+02  0.4391E+02
      3.038  0.2437E+02  0.4535E+02
      3.097  0.1419E+02  0.4618E+02
      3.156  0.9038E+01  0.4672E+02
      3.215  0.8194E+01  0.4720E+02
      3.274  0.8809E+01  0.4772E+02
      3.333  0.5544E+01  0.4805E+02
      3.392  0.1459E+02  0.4891E+02
      3.451  0.1531E+02  0.4981E+02
      3.510  0.1969E+02  0.5098E+02
      3.569  0.9451E+01  0.5154E+02
      3.628  0.1001E+01  0.5159E+02
      3.687  0.1691E+01  0.5169E+02
      3.746  0.1577E+02  0.5262E+02
      3.805  0.2555E+02  0.5413E+02
      3.864  0.1253E+02  0.5487E+02
      3.923  0.1606E+01  0.5497E+02
      3.982  0.6291E+00  0.5500E+02
      4.041  0.7659E+01  0.5546E+02
      4.100  0.1816E+02  0.5653E+02
      4.159  0.9234E+01  0.5707E+02
      4.218  0.5245E+01  0.5738E+02
      4.277  0.9113E+01  0.5792E+02
      4.336  0.1249E+02  0.5866E+02
      4.395  0.2015E+02  0.5985E+02
      4.454  0.1450E+02  0.6070E+02
      4.513  0.3937E+01  0.6094E+02
      4.572  0.4661E+01  0.6121E+02
      4.631  0.3076E+01  0.6139E+02
      4.690  0.2181E+00  0.6141E+02
      4.749  0.3163E-01  0.6141E+02
      4.808  0.1678E+01  0.6151E+02
      4.868  0.1179E+02  0.6220E+02
      4.927  0.1224E+02  0.6293E+02
      4.986  0.1762E+01  0.6303E+02
      5.045  0.2823E-01  0.6303E+02
      5.104  0.4082E-04  0.6303E+02
      5.163  0.2231E-05  0.6303E+02
      5.222  0.3884E-02  0.6303E+02
      5.281  0.5128E+00  0.6306E+02
      5.340  0.5951E+01  0.6341E+02
      5.399  0.7351E+01  0.6385E+02
      5.458  0.9918E+00  0.6391E+02
      5.517  0.1331E-01  0.6391E+02
      5.576  0.9437E-01  0.6391E+02
      5.635  0.7618E+00  0.6396E+02
      5.694  0.6678E+00  0.6400E+02
      5.753  0.6258E-01  0.6400E+02
      5.812  0.5187E-03  0.6400E+02
      5.871  0.3261E-06  0.6400E+02
      5.930  0.1434E-10  0.6400E+02
      5.989  0.3526E-15  0.6400E+02
      6.048  0.1029E-09  0.6400E+02
      6.107  0.1840E-05  0.6400E+02
      6.166  0.2235E-02  0.6400E+02
      6.225  0.2006E+00  0.6401E+02
      6.284  0.1582E+01  0.6411E+02
      6.343  0.1767E+01  0.6421E+02
      6.402  0.1966E+01  0.6433E+02
      6.461  0.8369E+00  0.6438E+02
      6.520  0.1716E+01  0.6448E+02
      6.579  0.7343E+01  0.6491E+02
      6.638  0.3480E+01  0.6512E+02
      6.698  0.1926E+00  0.6513E+02
      6.757  0.7530E+00  0.6517E+02
      6.816  0.2438E+01  0.6532E+02
      6.875  0.3927E+01  0.6555E+02
      6.934  0.2603E+01  0.6570E+02
      6.993  0.4992E+01  0.6600E+02
      7.052  0.6706E+01  0.6639E+02
      7.111  0.2599E+01  0.6654E+02
      7.170  0.7060E+01  0.6696E+02
      7.229  0.9688E+01  0.6753E+02
      7.288  0.3410E+01  0.6773E+02
      7.347  0.2606E+00  0.6775E+02
      7.406  0.1494E+00  0.6776E+02
      7.465  0.3332E+01  0.6796E+02
      7.524  0.8120E+01  0.6843E+02
      7.583  0.1317E+02  0.6921E+02
      7.642  0.2480E+02  0.7068E+02
      7.701  0.8503E+01  0.7118E+02
      7.760  0.6217E+01  0.7155E+02
      7.819  0.1612E+02  0.7250E+02
      7.878  0.1215E+02  0.7321E+02
      7.937  0.8691E+01  0.7373E+02
      7.996  0.1220E+02  0.7445E+02
      8.055  0.2280E+02  0.7579E+02
      8.114  0.1837E+02  0.7688E+02
      8.173  0.3441E+01  0.7708E+02
      8.232  0.1938E+01  0.7719E+02
      8.291  0.1185E+02  0.7789E+02
      8.350  0.1125E+02  0.7856E+02
      8.409  0.1400E+01  0.7864E+02
      8.469  0.8386E+01  0.7914E+02
      8.528  0.2785E+02  0.8078E+02
      8.587  0.1673E+02  0.8177E+02
      8.646  0.1146E+02  0.8244E+02
      8.705  0.9373E+01  0.8300E+02
      8.764  0.8402E+01  0.8349E+02
      8.823  0.6652E+01  0.8389E+02
      8.882  0.8598E+00  0.8394E+02
      8.941  0.1184E-01  0.8394E+02
      9.000  0.2714E-02  0.8394E+02
      9.059  0.3647E+00  0.8396E+02
      9.118  0.6044E+01  0.8432E+02
      9.177  0.1827E+02  0.8539E+02
      9.236  0.1247E+02  0.8613E+02
      9.295  0.9494E+01  0.8669E+02
      9.354  0.3018E+01  0.8687E+02
      9.413  0.1067E+01  0.8693E+02
      9.472  0.6563E+01  0.8732E+02
      9.531  0.4813E+01  0.8760E+02
      9.590  0.3619E+00  0.8762E+02
      9.649  0.2288E-02  0.8762E+02
      9.708  0.1232E-05  0.8763E+02
      9.767  0.5230E-03  0.8763E+02
      9.826  0.1111E+00  0.8763E+02
      9.885  0.1971E+01  0.8775E+02
      9.944  0.3557E+01  0.8796E+02
     10.003  0.6997E+00  0.8800E+02
     10.062  0.1277E-01  0.8800E+02
     10.121  0.1809E-04  0.8800E+02
     10.180  0.1806E-08  0.8800E+02
     10.239  0.1211E-13  0.8800E+02
     10.299  0.0000E+00  0.8800E+02
     10.358  0.0000E+00  0.8800E+02
     10.417  0.0000E+00  0.8800E+02
     10.476  0.0000E+00  0.8800E+02
     10.535  0.0000E+00  0.8800E+02
     10.594  0.0000E+00  0.8800E+02
     10.653  0.0000E+00  0.8800E+02
     10.712  0.0000E+00  0.8800E+02
