       N       E                     dE             d eps       ncg     rms          rms(c)
DAV:   1     0.151984066712E+03    0.15198E+03   -0.23714E+04  2112   0.116E+03
DAV:   2    -0.747882290646E+02   -0.22677E+03   -0.21331E+03  2632   0.168E+02
DAV:   3    -0.878404592167E+02   -0.13052E+02   -0.12848E+02  2716   0.369E+01
DAV:   4    -0.881162547303E+02   -0.27580E+00   -0.27464E+00  2608   0.668E+00
DAV:   5    -0.881245926088E+02   -0.83379E-02   -0.83272E-02  2644   0.106E+00    0.135E+01
DAV:   6    -0.871884846826E+02    0.93611E+00   -0.49961E-01  2416   0.212E+00    0.825E+00
DAV:   7    -0.867569508728E+02    0.43153E+00   -0.10696E+00  2416   0.322E+00    0.471E-01
DAV:   8    -0.867657983548E+02   -0.88475E-02   -0.59926E-02  2484   0.843E-01    0.175E-01
DAV:   9    -0.867673393808E+02   -0.15410E-02   -0.26200E-03  2708   0.200E-01    0.164E-01
DAV:  10    -0.867678414199E+02   -0.50204E-03   -0.11708E-03  2384   0.121E-01    0.818E-02
DAV:  11    -0.867678457119E+02   -0.42919E-05   -0.34678E-05  2568   0.213E-02    0.644E-03
DAV:  12    -0.867678489618E+02   -0.32500E-05   -0.32687E-06  2536   0.722E-03    0.371E-03
DAV:  13    -0.867678479728E+02    0.98904E-06   -0.66241E-07  2512   0.294E-03    0.591E-04
DAV:  14    -0.867678481574E+02   -0.18460E-06   -0.21122E-08  1920   0.579E-04    0.706E-04
DAV:  15    -0.867678480724E+02    0.85016E-07   -0.73874E-09  1448   0.323E-04    0.147E-04
DAV:  16    -0.867678480601E+02    0.12306E-07   -0.10602E-09  1400   0.145E-04    0.141E-04
DAV:  17    -0.867678480602E+02   -0.17008E-09   -0.19464E-10  1396   0.595E-05
   1 F= -.86767848E+02 E0= -.86767848E+02  d E =-.143836E-12
