 vasp.5.4.4.18Apr17-6-g9f103f2a35 (build Dec 20 2022 00:15:14) complex          
  
 executed on             LinuxIFC date 2023.06.08  20:21:13
 running on    4 total cores
 distrk:  each k-point on    4 cores,    1 groups
 distr:  one band on NCORES_PER_BAND=   1 cores,    4 groups


--------------------------------------------------------------------------------------------------------


 INCAR:
 POTCAR:    PAW_PBE Si 05Jan2001                  
 POTCAR:    PAW_PBE Si 05Jan2001                  
   VRHFIN =Si: s2p2                                                             
   LEXCH  = PE                                                                  
   EATOM  =   103.0669 eV,    7.5752 Ry                                         
                                                                                
   TITEL  = PAW_PBE Si 05Jan2001                                                
   LULTRA =        F    use ultrasoft PP ?                                      
   IUNSCR =        1    unscreen: 0-lin 1-nonlin 2-no                           
   RPACOR =    1.500    partial core radius                                     
   POMASS =   28.085; ZVAL   =    4.000    mass and valenz                      
   RCORE  =    1.900    outmost cutoff radius                                   
   RWIGS  =    2.480; RWIGS  =    1.312    wigner-seitz radius (au A)           
   ENMAX  =  245.345; ENMIN  =  184.009 eV                                      
   ICORE  =        2    local potential                                         
   LCOR   =        T    correct aug charges                                     
   LPAW   =        T    paw PP                                                  
   EAUG   =  322.069                                                            
   DEXC   =    0.000                                                            
   RMAX   =    1.950    core radius for proj-oper                               
   RAUG   =    1.300    factor for augmentation sphere                          
   RDEP   =    1.993    radius for radial grids                                 
   RDEPT  =    1.837    core radius for aug-charge                              
                                                                                
   Atomic configuration                                                         
    6 entries                                                                   
     n  l   j            E        occ.                                          
     1  0  0.50     -1785.8828   2.0000                                         
     2  0  0.50      -139.4969   2.0000                                         
     2  1  1.50       -95.5546   6.0000                                         
     3  0  0.50       -10.8127   2.0000                                         
     3  1  0.50        -4.0811   2.0000                                         
     3  2  1.50        -4.0817   0.0000                                         
   Description                                                                  
     l       E           TYP  RCUT    TYP  RCUT                                 
     0    -10.8127223     23  1.900                                             
     0     -7.6451159     23  1.900                                             
     1     -4.0811372     23  1.900                                             
     1      2.4879257     23  1.900                                             
     2     -4.0817478      7  1.900                                             
  local pseudopotential read in
  partial core-charges read in
  partial kinetic energy density read in
  atomic valenz-charges read in
  non local Contribution for L=           0  read in
    real space projection operators read in
  non local Contribution for L=           0  read in
    real space projection operators read in
  non local Contribution for L=           1  read in
    real space projection operators read in
  non local Contribution for L=           1  read in
    real space projection operators read in
    PAW grid and wavefunctions read in
 
   number of l-projection  operators is LMAX  =           4
   number of lm-projection operators is LMMAX =           8
 
  PAW_PBE Si 05Jan2001                  :
 energy of atom  1       EATOM= -103.0669
 kinetic energy error for atom=    0.0006 (will be added to EATOM!!)
 
 
 POSCAR: generated by phonopy                    
  positions in direct lattice
  No initial velocities read in
 exchange correlation table for  LEXCH =        8
   RHO(1)=    0.500       N(1)  =     2000
   RHO(2)=  100.500       N(2)  =     4000
 


--------------------------------------------------------------------------------------------------------


 ion  position               nearest neighbor table
   1  0.439  0.438  0.438-  16 2.36  14 2.37  12 2.37  15 2.38
   2  0.938  0.438  0.438-  15 2.37  13 2.37  11 2.37  16 2.37
   3  0.438  0.938  0.438-  14 2.37  13 2.37  10 2.37  16 2.37
   4  0.938  0.938  0.438-  13 2.37   9 2.37  14 2.37  15 2.37
   5  0.438  0.438  0.938-  12 2.37  11 2.37  10 2.37  16 2.37
   6  0.938  0.438  0.938-  11 2.37   9 2.37  12 2.37  15 2.37
   7  0.438  0.938  0.938-  10 2.37   9 2.37  12 2.37  14 2.37
   8  0.938  0.938  0.938-   9 2.37  10 2.37  11 2.37  13 2.37
   9  0.062  0.062  0.062-   8 2.37   6 2.37   7 2.37   4 2.37
  10  0.562  0.062  0.062-   7 2.37   5 2.37   3 2.37   8 2.37
  11  0.062  0.562  0.062-   6 2.37   5 2.37   2 2.37   8 2.37
  12  0.562  0.562  0.062-   5 2.37   6 2.37   7 2.37   1 2.37
  13  0.062  0.062  0.562-   4 2.37   3 2.37   2 2.37   8 2.37
  14  0.562  0.062  0.562-   3 2.37   4 2.37   7 2.37   1 2.37
  15  0.062  0.562  0.562-   2 2.37   4 2.37   6 2.37   1 2.38
  16  0.562  0.562  0.562-   1 2.36   2 2.37   3 2.37   5 2.37
 
  LATTYP: Found a face centered cubic cell.
 ALAT       =    10.9323976875
  
  Lattice vectors:
  
 A1 = (   0.0000000000,   5.4661988438,   5.4661988438)
 A2 = (   5.4661988438,   0.0000000000,   5.4661988438)
 A3 = (   5.4661988438,   5.4661988438,   0.0000000000)


Analysis of symmetry for initial positions (statically):
=====================================================================
 Subroutine PRICEL returns:
 Original cell was already a primitive cell.
 

 Routine SETGRP: Setting up the symmetry group for a 
 face centered cubic supercell.


 Subroutine GETGRP returns: Found  2 space group operations
 (whereof  2 operations were pure point group operations)
 out of a pool of 48 trial point group operations.


The static configuration has the point symmetry C_1h.


Analysis of symmetry for dynamics (positions and initial velocities):
=====================================================================
 Subroutine PRICEL returns:
 Original cell was already a primitive cell.
 

 Routine SETGRP: Setting up the symmetry group for a 
 face centered cubic supercell.


 Subroutine GETGRP returns: Found  2 space group operations
 (whereof  2 operations were pure point group operations)
 out of a pool of 48 trial point group operations.


The dynamic configuration has the point symmetry C_1h.


 Subroutine INISYM returns: Found  2 space group operations
 (whereof  2 operations are pure point group operations),
 and found     1 'primitive' translations

 
 
 KPOINTS: K-Spacing Value to Generate K-Mesh: 0.04

Automatic generation of k-mesh.
Space group operators:
 irot       det(A)        alpha          n_x          n_y          n_z        tau_x        tau_y        tau_z
    1     1.000000     0.000000     1.000000     0.000000     0.000000     0.000000     0.000000     0.000000
    2    -1.000000   180.000000     0.000000    -0.707107     0.707107     0.000000     0.000000     0.000000
 
 Subroutine IBZKPT returns following result:
 ===========================================
 
 Found     24 irreducible k-points:
 
 Following reciprocal coordinates:
            Coordinates               Weight
  0.000000  0.000000  0.000000      1.000000
  0.250000  0.000000  0.000000      2.000000
  0.500000  0.000000  0.000000      1.000000
  0.000000  0.250000  0.000000      4.000000
  0.250000  0.250000  0.000000      4.000000
  0.500000  0.250000  0.000000      4.000000
 -0.250000  0.250000  0.000000      4.000000
  0.000000  0.500000  0.000000      2.000000
  0.250000  0.500000  0.000000      4.000000
  0.500000  0.500000  0.000000      2.000000
  0.000000  0.250000  0.250000      2.000000
  0.250000  0.250000  0.250000      2.000000
  0.500000  0.250000  0.250000      2.000000
 -0.250000  0.250000  0.250000      2.000000
  0.000000  0.500000  0.250000      4.000000
  0.250000  0.500000  0.250000      4.000000
  0.500000  0.500000  0.250000      4.000000
 -0.250000  0.500000  0.250000      4.000000
  0.000000 -0.250000  0.250000      2.000000
  0.250000 -0.250000  0.250000      4.000000
  0.500000 -0.250000  0.250000      2.000000
  0.000000  0.500000  0.500000      1.000000
  0.250000  0.500000  0.500000      2.000000
  0.500000  0.500000  0.500000      1.000000
 
 Following cartesian coordinates:
            Coordinates               Weight
  0.000000  0.000000  0.000000      1.000000
 -0.022868  0.022868  0.022868      2.000000
 -0.045736  0.045736  0.045736      1.000000
  0.022868 -0.022868  0.022868      4.000000
  0.000000  0.000000  0.045736      4.000000
 -0.022868  0.022868  0.068603      4.000000
  0.045736 -0.045736  0.000000      4.000000
  0.045736 -0.045736  0.045736      2.000000
  0.022868 -0.022868  0.068603      4.000000
  0.000000  0.000000  0.091471      2.000000
  0.045736  0.000000  0.000000      2.000000
  0.022868  0.022868  0.022868      2.000000
  0.000000  0.045736  0.045736      2.000000
  0.068603 -0.022868 -0.022868      2.000000
  0.068603 -0.022868  0.022868      4.000000
  0.045736  0.000000  0.045736      4.000000
  0.022868  0.022868  0.068603      4.000000
  0.091471 -0.045736  0.000000      4.000000
  0.000000  0.045736 -0.045736      2.000000
 -0.022868  0.068603 -0.022868      4.000000
 -0.045736  0.091471  0.000000      2.000000
  0.091471  0.000000  0.000000      1.000000
  0.068603  0.022868  0.022868      2.000000
  0.045736  0.045736  0.045736      1.000000
 


--------------------------------------------------------------------------------------------------------




 Dimension of arrays:
   k-points           NKPTS =     24   k-points in BZ     NKDIM =     24   number of bands    NBANDS=     44
   number of dos      NEDOS =    301   number of ions     NIONS =     16
   non local maximal  LDIM  =      4   non local SUM 2l+1 LMDIM =      8
   total plane-waves  NPLWV = 175616
   max r-space proj   IRMAX =      1   max aug-charges    IRDMAX= 143986
   dimension x,y,z NGX =    56 NGY =   56 NGZ =   56
   dimension x,y,z NGXF=   112 NGYF=  112 NGZF=  112
   support grid    NGXF=   224 NGYF=  224 NGZF=  224
   ions per type =              16
   NGX,Y,Z   is equivalent  to a cutoff of  12.04, 12.04, 12.04 a.u.
   NGXF,Y,Z  is equivalent  to a cutoff of  24.09, 24.09, 24.09 a.u.

 SYSTEM =  unknown system                          
 POSCAR =  generated by phonopy                    

 Startparameter for this run:
   NWRITE =      2    write-flag & timer
   PREC   = a         normal or accurate (medium, high low for compatibility)
   ISTART =      0    job   : 0-new  1-cont  2-samecut
   ICHARG =      2    charge: 1-file 2-atom 10-const
   ISPIN  =      1    spin polarized calculation?
   LNONCOLLINEAR =      F non collinear calculations
   LSORBIT =      F    spin-orbit coupling
   INIWAV =      1    electr: 0-lowe 1-rand  2-diag
   LASPH  =      F    aspherical Exc in radial PAW
   METAGGA=      F    non-selfconsistent MetaGGA calc.

 Electronic Relaxation 1
   ENCUT  =  500.0 eV  36.75 Ry    6.06 a.u.  14.09 14.09 14.09*2*pi/ulx,y,z
   ENINI  =  500.0     initial cutoff
   ENAUG  =  322.1 eV  augmentation charge cutoff
   NELM   =     90;   NELMIN=  6; NELMDL= -5     # of ELM steps 
   EDIFF  = 0.1E-07   stopping-criterion for ELM
   LREAL  =      F    real-space projection
   NLSPLINE    = F    spline interpolate recip. space projectors
   LCOMPAT=      F    compatible to vasp.4.4
   GGA_COMPAT  = T    GGA compatible to vasp.4.4-vasp.4.6
   LMAXPAW     = -100 max onsite density
   LMAXMIX     =    2 max onsite mixed and CHGCAR
   VOSKOWN=      0    Vosko Wilk Nusair interpolation
   ROPT   =    0.00000
 Ionic relaxation
   EDIFFG = -.1E-01   stopping-criterion for IOM
   NSW    =      0    number of steps for IOM
   NBLOCK =      1;   KBLOCK =      1    inner block; outer block 
   IBRION =     -1    ionic relax: 0-MD 1-quasi-New 2-CG
   NFREE  =      0    steps in history (QN), initial steepest desc. (CG)
   ISIF   =      2    stress and relaxation
   IWAVPR =     10    prediction:  0-non 1-charg 2-wave 3-comb
   ISYM   =      2    0-nonsym 1-usesym 2-fastsym
   LCORR  =      T    Harris-Foulkes like correction to forces

   POTIM  = 0.5000    time-step for ionic-motion
   TEIN   =    0.0    initial temperature
   TEBEG  =    0.0;   TEEND  =   0.0 temperature during run
   SMASS  =  -3.00    Nose mass-parameter (am)
   estimated Nose-frequenzy (Omega)   =  0.10E-29 period in steps =****** mass=  -0.137E-26a.u.
   SCALEE = 1.0000    scale energy and forces
   NPACO  =    256;   APACO  = 16.0  distance and # of slots for P.C.
   PSTRESS=    0.0 pullay stress

  Mass of Ions in am
   POMASS =  28.09
  Ionic Valenz
   ZVAL   =   4.00
  Atomic Wigner-Seitz radii
   RWIGS  =  -1.00
  virtual crystal weights 
   VCA    =   1.00
   NELECT =      64.0000    total number of electrons
   NUPDOWN=      -1.0000    fix difference up-down

 DOS related values:
   EMIN   =  10.00;   EMAX   =-10.00  energy-range for DOS
   EFERMI =   0.00
   ISMEAR =     0;   SIGMA  =   0.05  broadening in eV -4-tet -1-fermi 0-gaus

 Electronic relaxation 2 (details)
   IALGO  =     38    algorithm
   LDIAG  =      T    sub-space diagonalisation (order eigenvalues)
   LSUBROT=      F    optimize rotation matrix (better conditioning)
   TURBO    =      0    0=normal 1=particle mesh
   IRESTART =      0    0=no restart 2=restart with 2 vectors
   NREBOOT  =      0    no. of reboots
   NMIN     =      0    reboot dimension
   EREF     =   0.00    reference energy to select bands
   IMIX   =      4    mixing-type and parameters
     AMIX     =   0.40;   BMIX     =  1.00
     AMIX_MAG =   1.60;   BMIX_MAG =  1.00
     AMIN     =   0.10
     WC   =   100.;   INIMIX=   1;  MIXPRE=   1;  MAXMIX= -45

 Intra band minimization:
   WEIMIN = 0.0000     energy-eigenvalue tresh-hold
   EBREAK =  0.57E-10  absolut break condition
   DEPER  =   0.30     relativ break condition  

   TIME   =   0.40     timestep for ELM

  volume/ion in A,a.u.               =      20.42       137.77
  Fermi-wavevector in a.u.,A,eV,Ry     =   0.950837  1.796821 12.300904  0.904091
  Thomas-Fermi vector in A             =   2.079251
 
 Write flags
   LWAVE        =      F    write WAVECAR
   LDOWNSAMPLE  =      F    k-point downsampling of WAVECAR
   LCHARG       =      F    write CHGCAR
   LVTOT        =      F    write LOCPOT, total local potential
   LVHAR        =      F    write LOCPOT, Hartree potential only
   LELF         =      F    write electronic localiz. function (ELF)
   LORBIT       =      0    0 simple, 1 ext, 2 COOP (PROOUT), +10 PAW based schemes


 Dipole corrections
   LMONO  =      F    monopole corrections only (constant potential shift)
   LDIPOL =      F    correct potential (dipole corrections)
   IDIPOL =      0    1-x, 2-y, 3-z, 4-all directions 
   EPSILON=  1.0000000 bulk dielectric constant

 Exchange correlation treatment:
   GGA     =    PE    GGA type
   LEXCH   =     8    internal setting for exchange type
   VOSKOWN=      0    Vosko Wilk Nusair interpolation
   LHFCALC =     F    Hartree Fock is set to
   LHFONE  =     F    Hartree Fock one center treatment
   AEXX    =    0.0000 exact exchange contribution

 Linear response parameters
   LEPSILON=     F    determine dielectric tensor
   LRPA    =     F    only Hartree local field effects (RPA)
   LNABLA  =     F    use nabla operator in PAW spheres
   LVEL    =     F    velocity operator in full k-point grid
   LINTERFAST=   F  fast interpolation
   KINTER  =     0    interpolate to denser k-point grid
   CSHIFT  =0.1000    complex shift for real part using Kramers Kronig
   OMEGAMAX=  -1.0    maximum frequency
   DEG_THRESHOLD= 0.2000000E-02 threshold for treating states as degnerate
   RTIME   =   -0.100 relaxation time in fs
  (WPLASMAI=    0.000 imaginary part of plasma frequency in eV, 0.658/RTIME)
   DFIELD  = 0.0000000 0.0000000 0.0000000 field for delta impulse in time
 
 Orbital magnetization related:
   ORBITALMAG=     F  switch on orbital magnetization
   LCHIMAG   =     F  perturbation theory with respect to B field
   DQ        =  0.001000  dq finite difference perturbation B field
   LLRAUG    =     F  two centre corrections for induced B field



--------------------------------------------------------------------------------------------------------


 Static calculation
 charge density and potential will be updated during run
 non-spin polarized calculation
 Variant of blocked Davidson
 Davidson routine will perform the subspace rotation
 perform sub-space diagonalisation
    after iterative eigenvector-optimisation
 modified Broyden-mixing scheme, WC =      100.0
 initial mixing is a Kerker type mixing with AMIX =  0.4000 and BMIX =      1.0000
 Hartree-type preconditioning will be used
 using additional bands           12
 reciprocal scheme for non local part
 use partial core corrections
 calculate Harris-corrections to forces 
   (improved forces if not selfconsistent)
 use gradient corrections 
 use of overlap-Matrix (Vanderbilt PP)
 Gauss-broadening in eV      SIGMA  =   0.05


--------------------------------------------------------------------------------------------------------


  energy-cutoff  :      500.00
  volume of cell :      326.65
      direct lattice vectors                 reciprocal lattice vectors
     0.000000000  5.466198844  5.466198844    -0.091471243  0.091471243  0.091471243
     5.466198844  0.000000000  5.466198844     0.091471243 -0.091471243  0.091471243
     5.466198844  5.466198844  0.000000000     0.091471243  0.091471243 -0.091471243

  length of vectors
     7.730372539  7.730372539  7.730372539     0.158432839  0.158432839  0.158432839


 
 k-points in units of 2pi/SCALE and weight: K-Spacing Value to Generate K-Mesh: 0.04
   0.00000000  0.00000000  0.00000000       0.016
  -0.02286781  0.02286781  0.02286781       0.031
  -0.04573562  0.04573562  0.04573562       0.016
   0.02286781 -0.02286781  0.02286781       0.062
   0.00000000  0.00000000  0.04573562       0.062
  -0.02286781  0.02286781  0.06860343       0.062
   0.04573562 -0.04573562  0.00000000       0.062
   0.04573562 -0.04573562  0.04573562       0.031
   0.02286781 -0.02286781  0.06860343       0.062
   0.00000000  0.00000000  0.09147124       0.031
   0.04573562  0.00000000  0.00000000       0.031
   0.02286781  0.02286781  0.02286781       0.031
   0.00000000  0.04573562  0.04573562       0.031
   0.06860343 -0.02286781 -0.02286781       0.031
   0.06860343 -0.02286781  0.02286781       0.062
   0.04573562  0.00000000  0.04573562       0.062
   0.02286781  0.02286781  0.06860343       0.062
   0.09147124 -0.04573562  0.00000000       0.062
   0.00000000  0.04573562 -0.04573562       0.031
  -0.02286781  0.06860343 -0.02286781       0.062
  -0.04573562  0.09147124  0.00000000       0.031
   0.09147124  0.00000000  0.00000000       0.016
   0.06860343  0.02286781  0.02286781       0.031
   0.04573562  0.04573562  0.04573562       0.016
 
 k-points in reciprocal lattice and weights: K-Spacing Value to Generate K-Mesh: 0.04
   0.00000000  0.00000000  0.00000000       0.016
   0.25000000  0.00000000  0.00000000       0.031
   0.50000000  0.00000000  0.00000000       0.016
   0.00000000  0.25000000  0.00000000       0.062
   0.25000000  0.25000000  0.00000000       0.062
   0.50000000  0.25000000  0.00000000       0.062
  -0.25000000  0.25000000  0.00000000       0.062
   0.00000000  0.50000000  0.00000000       0.031
   0.25000000  0.50000000  0.00000000       0.062
   0.50000000  0.50000000  0.00000000       0.031
   0.00000000  0.25000000  0.25000000       0.031
   0.25000000  0.25000000  0.25000000       0.031
   0.50000000  0.25000000  0.25000000       0.031
  -0.25000000  0.25000000  0.25000000       0.031
   0.00000000  0.50000000  0.25000000       0.062
   0.25000000  0.50000000  0.25000000       0.062
   0.50000000  0.50000000  0.25000000       0.062
  -0.25000000  0.50000000  0.25000000       0.062
   0.00000000 -0.25000000  0.25000000       0.031
   0.25000000 -0.25000000  0.25000000       0.062
   0.50000000 -0.25000000  0.25000000       0.031
   0.00000000  0.50000000  0.50000000       0.016
   0.25000000  0.50000000  0.50000000       0.031
   0.50000000  0.50000000  0.50000000       0.016
 
 position of ions in fractional coordinates (direct lattice) 
   0.43879360  0.43750000  0.43750000
   0.93750000  0.43750000  0.43750000
   0.43750000  0.93750000  0.43750000
   0.93750000  0.93750000  0.43750000
   0.43750000  0.43750000  0.93750000
   0.93750000  0.43750000  0.93750000
   0.43750000  0.93750000  0.93750000
   0.93750000  0.93750000  0.93750000
   0.06250000  0.06250000  0.06250000
   0.56250000  0.06250000  0.06250000
   0.06250000  0.56250000  0.06250000
   0.56250000  0.56250000  0.06250000
   0.06250000  0.06250000  0.56250000
   0.56250000  0.06250000  0.56250000
   0.06250000  0.56250000  0.56250000
   0.56250000  0.56250000  0.56250000
 
 position of ions in cartesian coordinates  (Angst):
   4.78292399  4.78999506  4.78999506
   4.78292399  7.51602341  7.51602341
   7.51602341  4.78292399  7.51602341
   7.51602341  7.51602341 10.24912283
   7.51602341  7.51602341  4.78292399
   7.51602341 10.24912283  7.51602341
  10.24912283  7.51602341  7.51602341
  10.24912283 10.24912283 10.24912283
   0.68327486  0.68327486  0.68327486
   0.68327486  3.41637428  3.41637428
   3.41637428  0.68327486  3.41637428
   3.41637428  3.41637428  6.14947370
   3.41637428  3.41637428  0.68327486
   3.41637428  6.14947370  3.41637428
   6.14947370  3.41637428  3.41637428
   6.14947370  6.14947370  6.14947370
 


--------------------------------------------------------------------------------------------------------


 k-point  1 :   0.0000 0.0000 0.0000  plane waves:    8363
 k-point  2 :   0.2500 0.0000 0.0000  plane waves:    8285
 k-point  3 :   0.5000 0.0000 0.0000  plane waves:    8292
 k-point  4 :   0.0000 0.2500 0.0000  plane waves:    8285
 k-point  5 :   0.2500 0.2500 0.0000  plane waves:    8268
 k-point  6 :   0.5000 0.2500 0.0000  plane waves:    8304
 k-point  7 :  -0.2500 0.2500 0.0000  plane waves:    8286
 k-point  8 :   0.0000 0.5000 0.0000  plane waves:    8292
 k-point  9 :   0.2500 0.5000 0.0000  plane waves:    8304
 k-point 10 :   0.5000 0.5000 0.0000  plane waves:    8256
 k-point 11 :   0.0000 0.2500 0.2500  plane waves:    8268
 k-point 12 :   0.2500 0.2500 0.2500  plane waves:    8285
 k-point 13 :   0.5000 0.2500 0.2500  plane waves:    8286
 k-point 14 :  -0.2500 0.2500 0.2500  plane waves:    8304
 k-point 15 :   0.0000 0.5000 0.2500  plane waves:    8304
 k-point 16 :   0.2500 0.5000 0.2500  plane waves:    8286
 k-point 17 :   0.5000 0.5000 0.2500  plane waves:    8304
 k-point 18 :  -0.2500 0.5000 0.2500  plane waves:    8372
 k-point 19 :   0.0000-0.2500 0.2500  plane waves:    8286
 k-point 20 :   0.2500-0.2500 0.2500  plane waves:    8304
 k-point 21 :   0.5000-0.2500 0.2500  plane waves:    8372
 k-point 22 :   0.0000 0.5000 0.5000  plane waves:    8256
 k-point 23 :   0.2500 0.5000 0.5000  plane waves:    8304
 k-point 24 :   0.5000 0.5000 0.5000  plane waves:    8292

 maximum and minimum number of plane-waves per node :      8372     8256

 maximum number of plane-waves:      8372
 maximum index in each direction: 
   IXMAX=   14   IYMAX=   14   IZMAX=   14
   IXMIN=  -14   IYMIN=  -14   IZMIN=  -14


 serial   3D FFT for wavefunctions
 parallel 3D FFT for charge:
    minimum data exchange during FFTs selected (reduces bandwidth)


 total amount of memory used by VASP MPI-rank0   157438. kBytes
=======================================================================

   base      :      30000. kBytes
   nonl-proj :      15002. kBytes
   fftplans  :      52349. kBytes
   grid      :      24134. kBytes
   one-center:         49. kBytes
   wavefun   :      35904. kBytes
 
     INWAV:  cpu time    0.0000: real time    0.0000
 Broyden mixing: mesh for mixing (old mesh)
   NGX = 29   NGY = 29   NGZ = 29
  (NGX  =112   NGY  =112   NGZ  =112)
  gives a total of  24389 points

 initial charge density was supplied:
 charge density of overlapping atoms calculated
 number of electron      64.0000000 magnetization 
 keeping initial charge density in first step


--------------------------------------------------------------------------------------------------------


 Maximum index for augmentation-charges        34968 (set IRDMAX)


--------------------------------------------------------------------------------------------------------


 First call to EWALD:  gamma=   0.257
 Maximum number of real-space cells 3x 3x 3
 Maximum number of reciprocal cells 3x 3x 3

    FEWALD:  cpu time    0.0013: real time    0.0013


--------------------------------------- Iteration      1(   1)  ---------------------------------------


    POTLOK:  cpu time    0.1172: real time    0.1176
    SETDIJ:  cpu time    0.0778: real time    0.0781
     EDDAV:  cpu time    3.5442: real time    3.5560
       DOS:  cpu time    0.0007: real time    0.0007
    --------------------------------------------
      LOOP:  cpu time    3.7399: real time    3.7524

 eigenvalue-minimisations  :  2112
 total energy-change (2. order) : 0.1519841E+03  (-0.2371380E+04)
 number of electron      64.0000000 magnetization 
 augmentation part       64.0000000 magnetization 

 Free energy of the ion-electron system (eV)
  ---------------------------------------------------
  alpha Z        PSCENC =        26.38202918
  Ewald energy   TEWEN  =     -1816.39718702
  -Hartree energ DENC   =       -90.41929843
  -exchange      EXHF   =         0.00000000
  -V(xc)+E(xc)   XCENC  =      -149.43829621
  PAW double counting   =      1409.98079384    -1128.48828464
  entropy T*S    EENTRO =        -0.00594318
  eigenvalues    EBANDS =       251.31014568
  atomic energy  EATOM  =      1649.06010750
  Solvation  Ediel_sol  =         0.00000000
  ---------------------------------------------------
  free energy    TOTEN  =       151.98406671 eV

  energy without entropy =      151.99000990  energy(sigma->0) =      151.98703830


--------------------------------------------------------------------------------------------------------




--------------------------------------- Iteration      1(   2)  ---------------------------------------


     EDDAV:  cpu time    4.1183: real time    4.1318
       DOS:  cpu time    0.0007: real time    0.0007
    --------------------------------------------
      LOOP:  cpu time    4.1190: real time    4.1324

 eigenvalue-minimisations  :  2632
 total energy-change (2. order) :-0.2267723E+03  (-0.2133054E+03)
 number of electron      64.0000000 magnetization 
 augmentation part       64.0000000 magnetization 

 Free energy of the ion-electron system (eV)
  ---------------------------------------------------
  alpha Z        PSCENC =        26.38202918
  Ewald energy   TEWEN  =     -1816.39718702
  -Hartree energ DENC   =       -90.41929843
  -exchange      EXHF   =         0.00000000
  -V(xc)+E(xc)   XCENC  =      -149.43829621
  PAW double counting   =      1409.98079384    -1128.48828464
  entropy T*S    EENTRO =        -0.00026639
  eigenvalues    EBANDS =        24.53217310
  atomic energy  EATOM  =      1649.06010750
  Solvation  Ediel_sol  =         0.00000000
  ---------------------------------------------------
  free energy    TOTEN  =       -74.78822906 eV

  energy without entropy =      -74.78796267  energy(sigma->0) =      -74.78809587


--------------------------------------------------------------------------------------------------------




--------------------------------------- Iteration      1(   3)  ---------------------------------------


     EDDAV:  cpu time    4.2088: real time    4.2224
       DOS:  cpu time    0.0004: real time    0.0004
    --------------------------------------------
      LOOP:  cpu time    4.2092: real time    4.2228

 eigenvalue-minimisations  :  2716
 total energy-change (2. order) :-0.1305223E+02  (-0.1284809E+02)
 number of electron      64.0000000 magnetization 
 augmentation part       64.0000000 magnetization 

 Free energy of the ion-electron system (eV)
  ---------------------------------------------------
  alpha Z        PSCENC =        26.38202918
  Ewald energy   TEWEN  =     -1816.39718702
  -Hartree energ DENC   =       -90.41929843
  -exchange      EXHF   =         0.00000000
  -V(xc)+E(xc)   XCENC  =      -149.43829621
  PAW double counting   =      1409.98079384    -1128.48828464
  entropy T*S    EENTRO =        -0.00000000
  eigenvalues    EBANDS =        11.47967656
  atomic energy  EATOM  =      1649.06010750
  Solvation  Ediel_sol  =         0.00000000
  ---------------------------------------------------
  free energy    TOTEN  =       -87.84045922 eV

  energy without entropy =      -87.84045922  energy(sigma->0) =      -87.84045922


--------------------------------------------------------------------------------------------------------




--------------------------------------- Iteration      1(   4)  ---------------------------------------


     EDDAV:  cpu time    4.0842: real time    4.0979
       DOS:  cpu time    0.0004: real time    0.0004
    --------------------------------------------
      LOOP:  cpu time    4.0847: real time    4.0984

 eigenvalue-minimisations  :  2608
 total energy-change (2. order) :-0.2757955E+00  (-0.2746415E+00)
 number of electron      64.0000000 magnetization 
 augmentation part       64.0000000 magnetization 

 Free energy of the ion-electron system (eV)
  ---------------------------------------------------
  alpha Z        PSCENC =        26.38202918
  Ewald energy   TEWEN  =     -1816.39718702
  -Hartree energ DENC   =       -90.41929843
  -exchange      EXHF   =         0.00000000
  -V(xc)+E(xc)   XCENC  =      -149.43829621
  PAW double counting   =      1409.98079384    -1128.48828464
  entropy T*S    EENTRO =        -0.00000000
  eigenvalues    EBANDS =        11.20388105
  atomic energy  EATOM  =      1649.06010750
  Solvation  Ediel_sol  =         0.00000000
  ---------------------------------------------------
  free energy    TOTEN  =       -88.11625473 eV

  energy without entropy =      -88.11625473  energy(sigma->0) =      -88.11625473


--------------------------------------------------------------------------------------------------------




--------------------------------------- Iteration      1(   5)  ---------------------------------------


     EDDAV:  cpu time    4.1218: real time    4.1358
       DOS:  cpu time    0.0004: real time    0.0004
    CHARGE:  cpu time    0.3145: real time    0.3154
    MIXING:  cpu time    0.0032: real time    0.0033
    --------------------------------------------
      LOOP:  cpu time    4.4400: real time    4.4549

 eigenvalue-minimisations  :  2644
 total energy-change (2. order) :-0.8337879E-02  (-0.8327247E-02)
 number of electron      64.0000000 magnetization 
 augmentation part       -3.7559999 magnetization 

 Broyden mixing:
  rms(total) = 0.13483E+01    rms(broyden)= 0.13483E+01
  rms(prec ) = 0.17625E+01
  weight for this iteration     100.00

 Free energy of the ion-electron system (eV)
  ---------------------------------------------------
  alpha Z        PSCENC =        26.38202918
  Ewald energy   TEWEN  =     -1816.39718702
  -Hartree energ DENC   =       -90.41929843
  -exchange      EXHF   =         0.00000000
  -V(xc)+E(xc)   XCENC  =      -149.43829621
  PAW double counting   =      1409.98079384    -1128.48828464
  entropy T*S    EENTRO =        -0.00000000
  eigenvalues    EBANDS =        11.19554317
  atomic energy  EATOM  =      1649.06010750
  Solvation  Ediel_sol  =         0.00000000
  ---------------------------------------------------
  free energy    TOTEN  =       -88.12459261 eV

  energy without entropy =      -88.12459261  energy(sigma->0) =      -88.12459261


--------------------------------------------------------------------------------------------------------




--------------------------------------- Iteration      1(   6)  ---------------------------------------


    POTLOK:  cpu time    0.1112: real time    0.1116
    SETDIJ:  cpu time    0.0747: real time    0.0749
     EDDAV:  cpu time    3.9087: real time    3.9223
       DOS:  cpu time    0.0004: real time    0.0004
    CHARGE:  cpu time    0.3081: real time    0.3089
    MIXING:  cpu time    0.0036: real time    0.0036
    --------------------------------------------
      LOOP:  cpu time    4.4068: real time    4.4218

 eigenvalue-minimisations  :  2416
 total energy-change (2. order) : 0.9361079E+00  (-0.4996112E-01)
 number of electron      64.0000000 magnetization 
 augmentation part       -3.7129169 magnetization 

 Broyden mixing:
  rms(total) = 0.82537E+00    rms(broyden)= 0.82537E+00
  rms(prec ) = 0.10644E+01
  weight for this iteration     100.00

 eigenvalues of (default mixing * dielectric matrix)
  average eigenvalue GAMMA=   2.5703
  2.5703

 Free energy of the ion-electron system (eV)
  ---------------------------------------------------
  alpha Z        PSCENC =        26.38202918
  Ewald energy   TEWEN  =     -1816.39718702
  -Hartree energ DENC   =      -102.17087386
  -exchange      EXHF   =         0.00000000
  -V(xc)+E(xc)   XCENC  =      -147.59074225
  PAW double counting   =      2976.83842923    -2696.17142896
  entropy T*S    EENTRO =        -0.00000000
  eigenvalues    EBANDS =        22.86118150
  atomic energy  EATOM  =      1649.06010750
  Solvation  Ediel_sol  =         0.00000000
  ---------------------------------------------------
  free energy    TOTEN  =       -87.18848468 eV

  energy without entropy =      -87.18848468  energy(sigma->0) =      -87.18848468


--------------------------------------------------------------------------------------------------------




--------------------------------------- Iteration      1(   7)  ---------------------------------------


    POTLOK:  cpu time    0.1093: real time    0.1097
    SETDIJ:  cpu time    0.0737: real time    0.0739
     EDDAV:  cpu time    3.9118: real time    3.9246
       DOS:  cpu time    0.0004: real time    0.0004
    CHARGE:  cpu time    0.3125: real time    0.3133
    MIXING:  cpu time    0.0035: real time    0.0035
    --------------------------------------------
      LOOP:  cpu time    4.4113: real time    4.4255

 eigenvalue-minimisations  :  2416
 total energy-change (2. order) : 0.4315338E+00  (-0.1069616E+00)
 number of electron      64.0000000 magnetization 
 augmentation part       -3.6561004 magnetization 

 Broyden mixing:
  rms(total) = 0.47093E-01    rms(broyden)= 0.47093E-01
  rms(prec ) = 0.73013E-01
  weight for this iteration     100.00

 eigenvalues of (default mixing * dielectric matrix)
  average eigenvalue GAMMA=   2.2510
  2.2510  2.2510

 Free energy of the ion-electron system (eV)
  ---------------------------------------------------
  alpha Z        PSCENC =        26.38202918
  Ewald energy   TEWEN  =     -1816.39718702
  -Hartree energ DENC   =      -121.98959521
  -exchange      EXHF   =         0.00000000
  -V(xc)+E(xc)   XCENC  =      -144.40740937
  PAW double counting   =      6800.70824527    -6521.12872457
  entropy T*S    EENTRO =        -0.00000000
  eigenvalues    EBANDS =        41.01558335
  atomic energy  EATOM  =      1649.06010750
  Solvation  Ediel_sol  =         0.00000000
  ---------------------------------------------------
  free energy    TOTEN  =       -86.75695087 eV

  energy without entropy =      -86.75695087  energy(sigma->0) =      -86.75695087


--------------------------------------------------------------------------------------------------------




--------------------------------------- Iteration      1(   8)  ---------------------------------------


    POTLOK:  cpu time    0.1116: real time    0.1119
    SETDIJ:  cpu time    0.0742: real time    0.0744
     EDDAV:  cpu time    3.9862: real time    3.9988
       DOS:  cpu time    0.0004: real time    0.0004
    CHARGE:  cpu time    0.3088: real time    0.3096
    MIXING:  cpu time    0.0040: real time    0.0041
    --------------------------------------------
      LOOP:  cpu time    4.4853: real time    4.4992

 eigenvalue-minimisations  :  2484
 total energy-change (2. order) :-0.8847482E-02  (-0.5992624E-02)
 number of electron      64.0000000 magnetization 
 augmentation part       -3.6642209 magnetization 

 Broyden mixing:
  rms(total) = 0.17514E-01    rms(broyden)= 0.17514E-01
  rms(prec ) = 0.25692E-01
  weight for this iteration     100.00

 eigenvalues of (default mixing * dielectric matrix)
  average eigenvalue GAMMA=   2.2771
  2.7606  2.0354  2.0354

 Free energy of the ion-electron system (eV)
  ---------------------------------------------------
  alpha Z        PSCENC =        26.38202918
  Ewald energy   TEWEN  =     -1816.39718702
  -Hartree energ DENC   =      -120.75319272
  -exchange      EXHF   =         0.00000000
  -V(xc)+E(xc)   XCENC  =      -144.51451423
  PAW double counting   =      6718.68107713    -6438.84947624
  entropy T*S    EENTRO =        -0.00000000
  eigenvalues    EBANDS =        39.62535805
  atomic energy  EATOM  =      1649.06010750
  Solvation  Ediel_sol  =         0.00000000
  ---------------------------------------------------
  free energy    TOTEN  =       -86.76579835 eV

  energy without entropy =      -86.76579835  energy(sigma->0) =      -86.76579835


--------------------------------------------------------------------------------------------------------




--------------------------------------- Iteration      1(   9)  ---------------------------------------


    POTLOK:  cpu time    0.1097: real time    0.1101
    SETDIJ:  cpu time    0.0737: real time    0.0739
     EDDAV:  cpu time    4.2553: real time    4.2689
       DOS:  cpu time    0.0005: real time    0.0005
    CHARGE:  cpu time    0.3128: real time    0.3136
    MIXING:  cpu time    0.0037: real time    0.0038
    --------------------------------------------
      LOOP:  cpu time    4.7557: real time    4.7706

 eigenvalue-minimisations  :  2708
 total energy-change (2. order) :-0.1541026E-02  (-0.2619984E-03)
 number of electron      64.0000000 magnetization 
 augmentation part       -3.6643740 magnetization 

 Broyden mixing:
  rms(total) = 0.16434E-01    rms(broyden)= 0.16434E-01
  rms(prec ) = 0.18157E-01
  weight for this iteration     100.00

 eigenvalues of (default mixing * dielectric matrix)
  average eigenvalue GAMMA=   2.4528
  1.0319  4.0213  2.1465  2.6114

 Free energy of the ion-electron system (eV)
  ---------------------------------------------------
  alpha Z        PSCENC =        26.38202918
  Ewald energy   TEWEN  =     -1816.39718702
  -Hartree energ DENC   =      -121.29322557
  -exchange      EXHF   =         0.00000000
  -V(xc)+E(xc)   XCENC  =      -144.42601168
  PAW double counting   =      6750.89790597    -6471.07915086
  entropy T*S    EENTRO =        -0.00000000
  eigenvalues    EBANDS =        40.08819310
  atomic energy  EATOM  =      1649.06010750
  Solvation  Ediel_sol  =         0.00000000
  ---------------------------------------------------
  free energy    TOTEN  =       -86.76733938 eV

  energy without entropy =      -86.76733938  energy(sigma->0) =      -86.76733938


--------------------------------------------------------------------------------------------------------




--------------------------------------- Iteration      1(  10)  ---------------------------------------


    POTLOK:  cpu time    0.1120: real time    0.1123
    SETDIJ:  cpu time    0.0742: real time    0.0744
     EDDAV:  cpu time    3.8641: real time    3.8766
       DOS:  cpu time    0.0004: real time    0.0004
    CHARGE:  cpu time    0.3090: real time    0.3098
    MIXING:  cpu time    0.0042: real time    0.0042
    --------------------------------------------
      LOOP:  cpu time    4.3639: real time    4.3777

 eigenvalue-minimisations  :  2384
 total energy-change (2. order) :-0.5020391E-03  (-0.1170844E-03)
 number of electron      64.0000000 magnetization 
 augmentation part       -3.6649084 magnetization 

 Broyden mixing:
  rms(total) = 0.81804E-02    rms(broyden)= 0.81804E-02
  rms(prec ) = 0.84302E-02
  weight for this iteration     100.00

 eigenvalues of (default mixing * dielectric matrix)
  average eigenvalue GAMMA=   1.9106
  2.9941  2.2738  2.2312  1.0268  1.0268

 Free energy of the ion-electron system (eV)
  ---------------------------------------------------
  alpha Z        PSCENC =        26.38202918
  Ewald energy   TEWEN  =     -1816.39718702
  -Hartree energ DENC   =      -121.31109938
  -exchange      EXHF   =         0.00000000
  -V(xc)+E(xc)   XCENC  =      -144.42398217
  PAW double counting   =      6619.56939533    -6339.73215369
  entropy T*S    EENTRO =        -0.00000000
  eigenvalues    EBANDS =        40.08504883
  atomic energy  EATOM  =      1649.06010750
  Solvation  Ediel_sol  =         0.00000000
  ---------------------------------------------------
  free energy    TOTEN  =       -86.76784142 eV

  energy without entropy =      -86.76784142  energy(sigma->0) =      -86.76784142


--------------------------------------------------------------------------------------------------------




--------------------------------------- Iteration      1(  11)  ---------------------------------------


    POTLOK:  cpu time    0.1096: real time    0.1100
    SETDIJ:  cpu time    0.0744: real time    0.0746
     EDDAV:  cpu time    4.0968: real time    4.1100
       DOS:  cpu time    0.0004: real time    0.0004
    CHARGE:  cpu time    0.3070: real time    0.3077
    MIXING:  cpu time    0.0039: real time    0.0039
    --------------------------------------------
      LOOP:  cpu time    4.5922: real time    4.6067

 eigenvalue-minimisations  :  2568
 total energy-change (2. order) :-0.4291926E-05  (-0.3467766E-05)
 number of electron      64.0000000 magnetization 
 augmentation part       -3.6650186 magnetization 

 Broyden mixing:
  rms(total) = 0.64393E-03    rms(broyden)= 0.64391E-03
  rms(prec ) = 0.80550E-03
  weight for this iteration     100.00

 eigenvalues of (default mixing * dielectric matrix)
  average eigenvalue GAMMA=   1.8803
  3.0732  2.3116  2.3116  1.7543  1.0166  0.8144

 Free energy of the ion-electron system (eV)
  ---------------------------------------------------
  alpha Z        PSCENC =        26.38202918
  Ewald energy   TEWEN  =     -1816.39718702
  -Hartree energ DENC   =      -121.32988550
  -exchange      EXHF   =         0.00000000
  -V(xc)+E(xc)   XCENC  =      -144.41931340
  PAW double counting   =      6662.60799319    -6382.77115547
  entropy T*S    EENTRO =        -0.00000000
  eigenvalues    EBANDS =        40.09956581
  atomic energy  EATOM  =      1649.06010750
  Solvation  Ediel_sol  =         0.00000000
  ---------------------------------------------------
  free energy    TOTEN  =       -86.76784571 eV

  energy without entropy =      -86.76784571  energy(sigma->0) =      -86.76784571


--------------------------------------------------------------------------------------------------------




--------------------------------------- Iteration      1(  12)  ---------------------------------------


    POTLOK:  cpu time    0.1095: real time    0.1098
    SETDIJ:  cpu time    0.0734: real time    0.0735
     EDDAV:  cpu time    4.0578: real time    4.0719
       DOS:  cpu time    0.0005: real time    0.0005
    CHARGE:  cpu time    0.3127: real time    0.3135
    MIXING:  cpu time    0.0043: real time    0.0043
    --------------------------------------------
      LOOP:  cpu time    4.5581: real time    4.5735

 eigenvalue-minimisations  :  2536
 total energy-change (2. order) :-0.3249973E-05  (-0.3268739E-06)
 number of electron      64.0000000 magnetization 
 augmentation part       -3.6649447 magnetization 

 Broyden mixing:
  rms(total) = 0.37091E-03    rms(broyden)= 0.37089E-03
  rms(prec ) = 0.47721E-03
  weight for this iteration     100.00

 eigenvalues of (default mixing * dielectric matrix)
  average eigenvalue GAMMA=   1.9188
  3.3026  2.6706  2.3097  2.3097  0.9663  0.9663  0.9060

 Free energy of the ion-electron system (eV)
  ---------------------------------------------------
  alpha Z        PSCENC =        26.38202918
  Ewald energy   TEWEN  =     -1816.39718702
  -Hartree energ DENC   =      -121.34544121
  -exchange      EXHF   =         0.00000000
  -V(xc)+E(xc)   XCENC  =      -144.41862564
  PAW double counting   =      6662.99162143    -6383.15523446
  entropy T*S    EENTRO =        -0.00000000
  eigenvalues    EBANDS =        40.11488125
  atomic energy  EATOM  =      1649.06010750
  Solvation  Ediel_sol  =         0.00000000
  ---------------------------------------------------
  free energy    TOTEN  =       -86.76784896 eV

  energy without entropy =      -86.76784896  energy(sigma->0) =      -86.76784896


--------------------------------------------------------------------------------------------------------




--------------------------------------- Iteration      1(  13)  ---------------------------------------


    POTLOK:  cpu time    0.1113: real time    0.1117
    SETDIJ:  cpu time    0.0744: real time    0.0746
     EDDAV:  cpu time    4.0273: real time    4.0413
       DOS:  cpu time    0.0004: real time    0.0004
    CHARGE:  cpu time    0.3072: real time    0.3081
    MIXING:  cpu time    0.0042: real time    0.0042
    --------------------------------------------
      LOOP:  cpu time    4.5250: real time    4.5404

 eigenvalue-minimisations  :  2512
 total energy-change (2. order) : 0.9890382E-06  (-0.6624101E-07)
 number of electron      64.0000000 magnetization 
 augmentation part       -3.6649657 magnetization 

 Broyden mixing:
  rms(total) = 0.59150E-04    rms(broyden)= 0.58977E-04
  rms(prec ) = 0.67586E-04
  weight for this iteration     100.00

 eigenvalues of (default mixing * dielectric matrix)
  average eigenvalue GAMMA=   1.8298
  3.2143  2.5887  2.5887  2.1722  0.9893  0.8815  1.1017  1.1017

 Free energy of the ion-electron system (eV)
  ---------------------------------------------------
  alpha Z        PSCENC =        26.38202918
  Ewald energy   TEWEN  =     -1816.39718702
  -Hartree energ DENC   =      -121.33940981
  -exchange      EXHF   =         0.00000000
  -V(xc)+E(xc)   XCENC  =      -144.41992321
  PAW double counting   =      6661.58779291    -6381.75035138
  entropy T*S    EENTRO =        -0.00000000
  eigenvalues    EBANDS =        40.10909387
  atomic energy  EATOM  =      1649.06010750
  Solvation  Ediel_sol  =         0.00000000
  ---------------------------------------------------
  free energy    TOTEN  =       -86.76784797 eV

  energy without entropy =      -86.76784797  energy(sigma->0) =      -86.76784797


--------------------------------------------------------------------------------------------------------




--------------------------------------- Iteration      1(  14)  ---------------------------------------


    POTLOK:  cpu time    0.1095: real time    0.1098
    SETDIJ:  cpu time    0.0743: real time    0.0745
     EDDAV:  cpu time    3.3515: real time    3.3622
       DOS:  cpu time    0.0004: real time    0.0004
    CHARGE:  cpu time    0.3083: real time    0.3091
    MIXING:  cpu time    0.0049: real time    0.0050
    --------------------------------------------
      LOOP:  cpu time    3.8490: real time    3.8610

 eigenvalue-minimisations  :  1920
 total energy-change (2. order) :-0.1845992E-06  (-0.2112244E-08)
 number of electron      64.0000000 magnetization 
 augmentation part       -3.6649619 magnetization 

 Broyden mixing:
  rms(total) = 0.70584E-04    rms(broyden)= 0.70440E-04
  rms(prec ) = 0.77490E-04
  weight for this iteration     100.00

 eigenvalues of (default mixing * dielectric matrix)
  average eigenvalue GAMMA=   1.8136
  3.2715  2.7073  2.2867  2.2867  1.5821  1.3568  0.9092  0.9609  0.9609

 Free energy of the ion-electron system (eV)
  ---------------------------------------------------
  alpha Z        PSCENC =        26.38202918
  Ewald energy   TEWEN  =     -1816.39718702
  -Hartree energ DENC   =      -121.34042341
  -exchange      EXHF   =         0.00000000
  -V(xc)+E(xc)   XCENC  =      -144.41986119
  PAW double counting   =      6661.89620873    -6382.05888477
  entropy T*S    EENTRO =        -0.00000000
  eigenvalues    EBANDS =        40.11016283
  atomic energy  EATOM  =      1649.06010750
  Solvation  Ediel_sol  =         0.00000000
  ---------------------------------------------------
  free energy    TOTEN  =       -86.76784816 eV

  energy without entropy =      -86.76784816  energy(sigma->0) =      -86.76784816


--------------------------------------------------------------------------------------------------------




--------------------------------------- Iteration      1(  15)  ---------------------------------------


    POTLOK:  cpu time    0.1095: real time    0.1098
    SETDIJ:  cpu time    0.0732: real time    0.0734
     EDDAV:  cpu time    2.7990: real time    2.8079
       DOS:  cpu time    0.0004: real time    0.0004
    CHARGE:  cpu time    0.3073: real time    0.3082
    MIXING:  cpu time    0.0046: real time    0.0046
    --------------------------------------------
      LOOP:  cpu time    3.2940: real time    3.3043

 eigenvalue-minimisations  :  1448
 total energy-change (2. order) : 0.8501593E-07  (-0.7387406E-09)
 number of electron      64.0000000 magnetization 
 augmentation part       -3.6649643 magnetization 

 Broyden mixing:
  rms(total) = 0.14651E-04    rms(broyden)= 0.13940E-04
  rms(prec ) = 0.14467E-04
  weight for this iteration     100.00

 eigenvalues of (default mixing * dielectric matrix)
  average eigenvalue GAMMA=   1.7928
  3.2810  2.6712  2.4588  2.2627  1.6071  1.6071  0.9266  0.9366  1.0883  1.0883

 Free energy of the ion-electron system (eV)
  ---------------------------------------------------
  alpha Z        PSCENC =        26.38202918
  Ewald energy   TEWEN  =     -1816.39718702
  -Hartree energ DENC   =      -121.33971347
  -exchange      EXHF   =         0.00000000
  -V(xc)+E(xc)   XCENC  =      -144.41996142
  PAW double counting   =      6661.58769739    -6381.75032780
  entropy T*S    EENTRO =        -0.00000000
  eigenvalues    EBANDS =        40.10950757
  atomic energy  EATOM  =      1649.06010750
  Solvation  Ediel_sol  =         0.00000000
  ---------------------------------------------------
  free energy    TOTEN  =       -86.76784807 eV

  energy without entropy =      -86.76784807  energy(sigma->0) =      -86.76784807


--------------------------------------------------------------------------------------------------------




--------------------------------------- Iteration      1(  16)  ---------------------------------------


    POTLOK:  cpu time    0.1096: real time    0.1099
    SETDIJ:  cpu time    0.0741: real time    0.0743
     EDDAV:  cpu time    2.7434: real time    2.7520
       DOS:  cpu time    0.0004: real time    0.0004
    CHARGE:  cpu time    0.3071: real time    0.3079
    MIXING:  cpu time    0.0049: real time    0.0054
    --------------------------------------------
      LOOP:  cpu time    3.2396: real time    3.2500

 eigenvalue-minimisations  :  1400
 total energy-change (2. order) : 0.1230637E-07  (-0.1060159E-09)
 number of electron      64.0000000 magnetization 
 augmentation part       -3.6649647 magnetization 

 Broyden mixing:
  rms(total) = 0.14074E-04    rms(broyden)= 0.13332E-04
  rms(prec ) = 0.13680E-04
  weight for this iteration     100.00

 eigenvalues of (default mixing * dielectric matrix)
  average eigenvalue GAMMA=   1.7465
  3.2646  2.7073  2.3242  2.3242  1.8286  1.8286  1.1360  1.1360  0.8928  0.8928
  0.8766

 Free energy of the ion-electron system (eV)
  ---------------------------------------------------
  alpha Z        PSCENC =        26.38202918
  Ewald energy   TEWEN  =     -1816.39718702
  -Hartree energ DENC   =      -121.33969364
  -exchange      EXHF   =         0.00000000
  -V(xc)+E(xc)   XCENC  =      -144.41996071
  PAW double counting   =      6661.60200691    -6381.76463307
  entropy T*S    EENTRO =        -0.00000000
  eigenvalues    EBANDS =        40.10948280
  atomic energy  EATOM  =      1649.06010750
  Solvation  Ediel_sol  =         0.00000000
  ---------------------------------------------------
  free energy    TOTEN  =       -86.76784806 eV

  energy without entropy =      -86.76784806  energy(sigma->0) =      -86.76784806


--------------------------------------------------------------------------------------------------------




--------------------------------------- Iteration      1(  17)  ---------------------------------------


    POTLOK:  cpu time    0.1092: real time    0.1103
    SETDIJ:  cpu time    0.0734: real time    0.0736
     EDDAV:  cpu time    2.7465: real time    2.7551
       DOS:  cpu time    0.0004: real time    0.0004
    --------------------------------------------
      LOOP:  cpu time    2.9296: real time    2.9393

 eigenvalue-minimisations  :  1396
 total energy-change (2. order) :-0.1700755E-09  (-0.1946360E-10)
 number of electron      64.0000000 magnetization 
 augmentation part       -3.6649647 magnetization 

 Free energy of the ion-electron system (eV)
  ---------------------------------------------------
  alpha Z        PSCENC =        26.38202918
  Ewald energy   TEWEN  =     -1816.39718702
  -Hartree energ DENC   =      -121.33961723
  -exchange      EXHF   =         0.00000000
  -V(xc)+E(xc)   XCENC  =      -144.41996973
  PAW double counting   =      6661.56721100    -6381.72983897
  entropy T*S    EENTRO =        -0.00000000
  eigenvalues    EBANDS =        40.10941721
  atomic energy  EATOM  =      1649.06010750
  Solvation  Ediel_sol  =         0.00000000
  ---------------------------------------------------
  free energy    TOTEN  =       -86.76784806 eV

  energy without entropy =      -86.76784806  energy(sigma->0) =      -86.76784806


--------------------------------------------------------------------------------------------------------




 average (electrostatic) potential at core
  the test charge radii are     0.9892
  (the norm of the test charge is              1.0000)
       1 -83.4651       2 -83.4651       3 -83.4685       4 -83.4616       5 -83.4685
       6 -83.4616       7 -83.4651       8 -83.4651       9 -83.4637      10 -83.4664
      11 -83.4651      12 -83.4651      13 -83.4651      14 -83.4651      15 -83.4629
      16 -83.4672
 
 
 
 E-fermi :   5.8729     XC(G=0):  -9.3317     alpha+bet :-11.7480


 k-point     1 :       0.0000    0.0000    0.0000
  band No.  band energies     occupation 
      1      -6.1930      2.00000
      2      -3.9159      2.00000
      3      -3.9108      2.00000
      4      -3.9107      2.00000
      5      -3.9057      2.00000
      6      -2.1283      2.00000
      7      -2.1200      2.00000
      8      -2.1194      2.00000
      9      -2.1194      2.00000
     10      -2.1187      2.00000
     11      -2.1106      2.00000
     12      -1.2491      2.00000
     13      -1.2439      2.00000
     14      -1.2438      2.00000
     15      -1.2384      2.00000
     16       2.8298      2.00000
     17       2.8329      2.00000
     18       2.8334      2.00000
     19       2.8334      2.00000
     20       2.8338      2.00000
     21       2.8369      2.00000
     22       4.4411      2.00000
     23       4.4488      2.00000
     24       4.4508      2.00000
     25       4.4508      2.00000
     26       4.4524      2.00000
     27       4.4524      2.00000
     28       4.4544      2.00000
     29       4.4620      2.00000
     30       5.6254      2.00000
     31       5.6313      2.00000
     32       5.6374      2.00000
     33       6.3737      0.00000
     34       6.3766      0.00000
     35       6.3798      0.00000
     36       6.3798      0.00000
     37       6.3830      0.00000
     38       6.3859      0.00000
     39       7.1013      0.00000
     40       7.1027      0.00000
     41       7.1027      0.00000
     42       7.1041      0.00000
     43       8.1861      0.00000
     44       8.1912      0.00000

 k-point     2 :       0.2500    0.0000    0.0000
  band No.  band energies     occupation 
      1      -5.9924      2.00000
      2      -4.5323      2.00000
      3      -3.8264      2.00000
      4      -3.8238      2.00000
      5      -3.8195      2.00000
      6      -2.9613      2.00000
      7      -2.9584      2.00000
      8      -2.9548      2.00000
      9      -1.1547      2.00000
     10      -1.1508      2.00000
     11      -1.1486      2.00000
     12      -1.0376      2.00000
     13      -1.0326      2.00000
     14      -1.0317      2.00000
     15      -0.2408      2.00000
     16       2.2680      2.00000
     17       2.2690      2.00000
     18       2.2720      2.00000
     19       2.9970      2.00000
     20       2.9994      2.00000
     21       2.9998      2.00000
     22       3.3832      2.00000
     23       3.3850      2.00000
     24       3.3912      2.00000
     25       4.0438      2.00000
     26       4.0931      2.00000
     27       4.0964      2.00000
     28       4.0971      2.00000
     29       4.5590      2.00000
     30       4.5635      2.00000
     31       5.3439      2.00000
     32       5.3489      2.00000
     33       6.5561      0.00000
     34       6.5570      0.00000
     35       6.5609      0.00000
     36       7.2295      0.00000
     37       7.6127      0.00000
     38       7.6169      0.00000
     39       7.6189      0.00000
     40       7.7935      0.00000
     41       7.7967      0.00000
     42       7.7975      0.00000
     43       8.0764      0.00000
     44       8.6033      0.00000

 k-point     3 :       0.5000    0.0000    0.0000
  band No.  band energies     occupation 
      1      -5.4108      2.00000
      2      -5.4040      2.00000
      3      -3.5328      2.00000
      4      -3.5265      2.00000
      5      -3.5260      2.00000
      6      -3.5246      2.00000
      7      -3.5241      2.00000
      8      -3.5153      2.00000
      9      -0.7073      2.00000
     10      -0.6982      2.00000
     11      -0.6972      2.00000
     12      -0.6948      2.00000
     13      -0.6947      2.00000
     14      -0.6937      2.00000
     15       1.7428      2.00000
     16       1.7480      2.00000
     17       2.1626      2.00000
     18       2.1627      2.00000
     19       2.1640      2.00000
     20       2.1666      2.00000
     21       2.1689      2.00000
     22       2.1769      2.00000
     23       3.4591      2.00000
     24       3.4645      2.00000
     25       3.4666      2.00000
     26       3.4698      2.00000
     27       3.4714      2.00000
     28       3.4719      2.00000
     29       4.8755      2.00000
     30       4.8848      2.00000
     31       4.8876      2.00000
     32       4.8877      2.00000
     33       7.1638      0.00000
     34       7.1642      0.00000
     35       7.1711      0.00000
     36       7.1725      0.00000
     37       7.1732      0.00000
     38       7.1741      0.00000
     39       7.5903      0.00000
     40       7.5974      0.00000
     41       9.1136      0.00000
     42       9.1228      0.00000
     43       9.1238      0.00000
     44       9.1239      0.00000

 k-point     4 :       0.0000    0.2500    0.0000
  band No.  band energies     occupation 
      1      -5.9923      2.00000
      2      -4.5314      2.00000
      3      -3.8279      2.00000
      4      -3.8238      2.00000
      5      -3.8198      2.00000
      6      -2.9630      2.00000
      7      -2.9585      2.00000
      8      -2.9539      2.00000
      9      -1.1557      2.00000
     10      -1.1505      2.00000
     11      -1.1459      2.00000
     12      -1.0372      2.00000
     13      -1.0325      2.00000
     14      -1.0272      2.00000
     15      -0.2442      2.00000
     16       2.2657      2.00000
     17       2.2680      2.00000
     18       2.2702      2.00000
     19       2.9975      2.00000
     20       2.9998      2.00000
     21       3.0022      2.00000
     22       3.3806      2.00000
     23       3.3836      2.00000
     24       3.3865      2.00000
     25       4.0399      2.00000
     26       4.0948      2.00000
     27       4.0975      2.00000
     28       4.1006      2.00000
     29       4.5585      2.00000
     30       4.5662      2.00000
     31       5.3442      2.00000
     32       5.3529      2.00000
     33       6.5561      0.00000
     34       6.5595      0.00000
     35       6.5629      0.00000
     36       7.2308      0.00000
     37       7.6109      0.00000
     38       7.6149      0.00000
     39       7.6190      0.00000
     40       7.7930      0.00000
     41       7.7966      0.00000
     42       7.8000      0.00000
     43       8.0785      0.00000
     44       8.6046      0.00000

 k-point     5 :       0.2500    0.2500    0.0000
  band No.  band energies     occupation 
      1      -5.9246      2.00000
      2      -4.0669      2.00000
      3      -4.0619      2.00000
      4      -4.0612      2.00000
      5      -4.0564      2.00000
      6      -3.8389      2.00000
      7      -2.0507      2.00000
      8      -2.0453      2.00000
      9      -2.0453      2.00000
     10      -2.0401      2.00000
     11      -0.6761      2.00000
     12      -0.6710      2.00000
     13      -0.6703      2.00000
     14      -0.6652      2.00000
     15      -0.0827      2.00000
     16       2.2847      2.00000
     17       2.2863      2.00000
     18       2.2876      2.00000
     19       2.2892      2.00000
     20       3.0735      2.00000
     21       3.0766      2.00000
     22       3.2035      2.00000
     23       3.2074      2.00000
     24       3.2086      2.00000
     25       3.2125      2.00000
     26       4.2805      2.00000
     27       4.3809      2.00000
     28       4.3867      2.00000
     29       4.3879      2.00000
     30       4.3938      2.00000
     31       4.8408      2.00000
     32       4.8463      2.00000
     33       6.2791      0.00000
     34       7.2044      0.00000
     35       7.6115      0.00000
     36       7.6154      0.00000
     37       7.6165      0.00000
     38       7.6206      0.00000
     39       7.6467      0.00000
     40       7.9438      0.00000
     41       7.9466      0.00000
     42       7.9478      0.00000
     43       7.9506      0.00000
     44       9.2411      0.00000

 k-point     6 :       0.5000    0.2500    0.0000
  band No.  band energies     occupation 
      1      -5.4641      2.00000
      2      -4.9652      2.00000
      3      -4.4317      2.00000
      4      -4.0174      2.00000
      5      -4.0127      2.00000
      6      -3.3284      2.00000
      7      -2.7921      2.00000
      8      -2.7873      2.00000
      9      -1.2515      2.00000
     10      -1.2473      2.00000
     11      -0.9453      2.00000
     12      -0.1649      2.00000
     13      -0.1599      2.00000
     14       0.7136      2.00000
     15       1.0506      2.00000
     16       1.6576      2.00000
     17       1.6600      2.00000
     18       1.7178      2.00000
     19       2.3702      2.00000
     20       2.3730      2.00000
     21       2.4274      2.00000
     22       2.7325      2.00000
     23       2.7352      2.00000
     24       3.0164      2.00000
     25       3.3611      2.00000
     26       3.4647      2.00000
     27       3.7398      2.00000
     28       3.7453      2.00000
     29       3.7783      2.00000
     30       4.3384      2.00000
     31       4.4044      2.00000
     32       4.8664      2.00000
     33       6.9991      0.00000
     34       7.4839      0.00000
     35       7.7755      0.00000
     36       8.0226      0.00000
     37       8.0269      0.00000
     38       8.2898      0.00000
     39       8.4933      0.00000
     40       8.4972      0.00000
     41       8.5349      0.00000
     42       9.1625      0.00000
     43       9.1686      0.00000
     44       9.2797      0.00000

 k-point     7 :      -0.2500    0.2500    0.0000
  band No.  band energies     occupation 
      1      -5.6619      2.00000
      2      -4.6675      2.00000
      3      -4.6616      2.00000
      4      -3.6472      2.00000
      5      -3.6425      2.00000
      6      -3.3819      2.00000
      7      -3.3769      2.00000
      8      -2.5363      2.00000
      9      -1.5337      2.00000
     10      -1.0856      2.00000
     11      -1.0806      2.00000
     12      -0.3024      2.00000
     13      -0.2979      2.00000
     14       0.3985      2.00000
     15       0.4040      2.00000
     16       1.4252      2.00000
     17       2.2396      2.00000
     18       2.2443      2.00000
     19       2.3376      2.00000
     20       2.3399      2.00000
     21       2.9301      2.00000
     22       2.9353      2.00000
     23       2.9597      2.00000
     24       3.2507      2.00000
     25       3.5148      2.00000
     26       3.5179      2.00000
     27       3.8206      2.00000
     28       3.8247      2.00000
     29       4.0390      2.00000
     30       4.0698      2.00000
     31       4.0768      2.00000
     32       5.3377      2.00000
     33       6.8610      0.00000
     34       7.5838      0.00000
     35       7.5877      0.00000
     36       7.8567      0.00000
     37       7.8617      0.00000
     38       8.2866      0.00000
     39       8.2919      0.00000
     40       8.6040      0.00000
     41       8.6594      0.00000
     42       8.6607      0.00000
     43       8.7445      0.00000
     44       8.7724      0.00000

 k-point     8 :       0.0000    0.5000    0.0000
  band No.  band energies     occupation 
      1      -5.4072      2.00000
      2      -5.4071      2.00000
      3      -3.5346      2.00000
      4      -3.5263      2.00000
      5      -3.5254      2.00000
      6      -3.5253      2.00000
      7      -3.5244      2.00000
      8      -3.5162      2.00000
      9      -0.7072      2.00000
     10      -0.6981      2.00000
     11      -0.6959      2.00000
     12      -0.6959      2.00000
     13      -0.6936      2.00000
     14      -0.6846      2.00000
     15       1.7424      2.00000
     16       1.7425      2.00000
     17       2.1582      2.00000
     18       2.1625      2.00000
     19       2.1641      2.00000
     20       2.1641      2.00000
     21       2.1656      2.00000
     22       2.1700      2.00000
     23       3.4638      2.00000
     24       3.4684      2.00000
     25       3.4686      2.00000
     26       3.4687      2.00000
     27       3.4689      2.00000
     28       3.4735      2.00000
     29       4.8773      2.00000
     30       4.8851      2.00000
     31       4.8855      2.00000
     32       4.8936      2.00000
     33       7.1644      0.00000
     34       7.1711      0.00000
     35       7.1715      0.00000
     36       7.1715      0.00000
     37       7.1718      0.00000
     38       7.1784      0.00000
     39       7.5954      0.00000
     40       7.5954      0.00000
     41       9.1133      0.00000
     42       9.1213      0.00000
     43       9.1230      0.00000
     44       9.1311      0.00000

 k-point     9 :       0.2500    0.5000    0.0000
  band No.  band energies     occupation 
      1      -5.4639      2.00000
      2      -4.9649      2.00000
      3      -4.4320      2.00000
      4      -4.0174      2.00000
      5      -4.0127      2.00000
      6      -3.3296      2.00000
      7      -2.7922      2.00000
      8      -2.7875      2.00000
      9      -1.2511      2.00000
     10      -1.2469      2.00000
     11      -0.9422      2.00000
     12      -0.1644      2.00000
     13      -0.1595      2.00000
     14       0.7165      2.00000
     15       1.0483      2.00000
     16       1.6567      2.00000
     17       1.6584      2.00000
     18       1.7155      2.00000
     19       2.3682      2.00000
     20       2.3718      2.00000
     21       2.4236      2.00000
     22       2.7334      2.00000
     23       2.7360      2.00000
     24       3.0131      2.00000
     25       3.3634      2.00000
     26       3.4649      2.00000
     27       3.7405      2.00000
     28       3.7474      2.00000
     29       3.7785      2.00000
     30       4.3380      2.00000
     31       4.4092      2.00000
     32       4.8658      2.00000
     33       6.9995      0.00000
     34       7.4840      0.00000
     35       7.7756      0.00000
     36       8.0249      0.00000
     37       8.0293      0.00000
     38       8.2907      0.00000
     39       8.4938      0.00000
     40       8.4990      0.00000
     41       8.5352      0.00000
     42       9.1627      0.00000
     43       9.1691      0.00000
     44       9.2618      0.00000

 k-point    10 :       0.5000    0.5000    0.0000
  band No.  band energies     occupation 
      1      -5.1322      2.00000
      2      -5.1261      2.00000
      3      -4.1915      2.00000
      4      -4.1868      2.00000
      5      -4.1857      2.00000
      6      -4.1810      2.00000
      7      -1.9696      2.00000
      8      -1.9642      2.00000
      9      -1.9642      2.00000
     10      -1.9589      2.00000
     11       0.1841      2.00000
     12       0.1891      2.00000
     13       0.1899      2.00000
     14       0.1949      2.00000
     15       1.8619      2.00000
     16       1.8635      2.00000
     17       1.8646      2.00000
     18       1.8661      2.00000
     19       1.9542      2.00000
     20       1.9560      2.00000
     21       1.9573      2.00000
     22       1.9592      2.00000
     23       2.1123      2.00000
     24       2.1145      2.00000
     25       3.7744      2.00000
     26       3.7782      2.00000
     27       3.7817      2.00000
     28       3.7855      2.00000
     29       4.3212      2.00000
     30       4.3269      2.00000
     31       4.3279      2.00000
     32       4.3338      2.00000
     33       6.7797      0.00000
     34       6.7827      0.00000
     35       8.0646      0.00000
     36       8.0693      0.00000
     37       8.0702      0.00000
     38       8.0749      0.00000
     39       8.7653      0.00000
     40       8.7682      0.00000
     41       9.8963      0.00000
     42       9.9006      0.00000
     43       9.9017      0.00000
     44       9.9059      0.00000

 k-point    11 :       0.0000    0.2500    0.2500
  band No.  band energies     occupation 
      1      -5.9246      2.00000
      2      -4.0677      2.00000
      3      -4.0616      2.00000
      4      -4.0616      2.00000
      5      -4.0556      2.00000
      6      -3.8390      2.00000
      7      -2.0515      2.00000
      8      -2.0458      2.00000
      9      -2.0449      2.00000
     10      -2.0391      2.00000
     11      -0.6767      2.00000
     12      -0.6707      2.00000
     13      -0.6707      2.00000
     14      -0.6646      2.00000
     15      -0.0827      2.00000
     16       2.2846      2.00000
     17       2.2847      2.00000
     18       2.2892      2.00000
     19       2.2893      2.00000
     20       3.0751      2.00000
     21       3.0751      2.00000
     22       3.2020      2.00000
     23       3.2080      2.00000
     24       3.2080      2.00000
     25       3.2139      2.00000
     26       4.2803      2.00000
     27       4.3841      2.00000
     28       4.3873      2.00000
     29       4.3877      2.00000
     30       4.3905      2.00000
     31       4.8435      2.00000
     32       4.8435      2.00000
     33       6.2791      0.00000
     34       7.2044      0.00000
     35       7.6125      0.00000
     36       7.6127      0.00000
     37       7.6193      0.00000
     38       7.6195      0.00000
     39       7.6468      0.00000
     40       7.9462      0.00000
     41       7.9471      0.00000
     42       7.9472      0.00000
     43       7.9482      0.00000
     44       9.2366      0.00000

 k-point    12 :       0.2500    0.2500    0.2500
  band No.  band energies     occupation 
      1      -5.9922      2.00000
      2      -4.5304      2.00000
      3      -3.8282      2.00000
      4      -3.8238      2.00000
      5      -3.8213      2.00000
      6      -2.9622      2.00000
      7      -2.9586      2.00000
      8      -2.9557      2.00000
      9      -1.1525      2.00000
     10      -1.1502      2.00000
     11      -1.1468      2.00000
     12      -1.0333      2.00000
     13      -1.0323      2.00000
     14      -1.0269      2.00000
     15      -0.2475      2.00000
     16       2.2639      2.00000
     17       2.2669      2.00000
     18       2.2679      2.00000
     19       2.9999      2.00000
     20       3.0003      2.00000
     21       3.0026      2.00000
     22       3.3760      2.00000
     23       3.3822      2.00000
     24       3.3840      2.00000
     25       4.0365      2.00000
     26       4.0980      2.00000
     27       4.0988      2.00000
     28       4.1022      2.00000
     29       4.5612      2.00000
     30       4.5657      2.00000
     31       5.3481      2.00000
     32       5.3532      2.00000
     33       6.5582      0.00000
     34       6.5621      0.00000
     35       6.5629      0.00000
     36       7.2322      0.00000
     37       7.6108      0.00000
     38       7.6130      0.00000
     39       7.6171      0.00000
     40       7.7956      0.00000
     41       7.7965      0.00000
     42       7.7996      0.00000
     43       8.0806      0.00000
     44       8.6052      0.00000

 k-point    13 :       0.5000    0.2500    0.2500
  band No.  band energies     occupation 
      1      -5.6618      2.00000
      2      -4.6650      2.00000
      3      -4.6636      2.00000
      4      -3.6456      2.00000
      5      -3.6453      2.00000
      6      -3.3803      2.00000
      7      -3.3801      2.00000
      8      -2.5341      2.00000
      9      -1.5366      2.00000
     10      -1.0810      2.00000
     11      -1.0810      2.00000
     12      -0.2982      2.00000
     13      -0.2982      2.00000
     14       0.3965      2.00000
     15       0.4037      2.00000
     16       1.4241      2.00000
     17       2.2396      2.00000
     18       2.2397      2.00000
     19       2.3386      2.00000
     20       2.3387      2.00000
     21       2.9309      2.00000
     22       2.9312      2.00000
     23       2.9567      2.00000
     24       3.2524      2.00000
     25       3.5176      2.00000
     26       3.5176      2.00000
     27       3.8174      2.00000
     28       3.8250      2.00000
     29       4.0398      2.00000
     30       4.0748      2.00000
     31       4.0761      2.00000
     32       5.3414      2.00000
     33       6.8632      0.00000
     34       7.5864      0.00000
     35       7.5864      0.00000
     36       7.8601      0.00000
     37       7.8614      0.00000
     38       8.2891      0.00000
     39       8.2891      0.00000
     40       8.6051      0.00000
     41       8.6580      0.00000
     42       8.6584      0.00000
     43       8.7435      0.00000
     44       8.7767      0.00000

 k-point    14 :      -0.2500    0.2500    0.2500
  band No.  band energies     occupation 
      1      -5.4642      2.00000
      2      -4.9650      2.00000
      3      -4.4313      2.00000
      4      -4.0158      2.00000
      5      -4.0157      2.00000
      6      -3.3265      2.00000
      7      -2.7902      2.00000
      8      -2.7901      2.00000
      9      -1.2487      2.00000
     10      -1.2484      2.00000
     11      -0.9495      2.00000
     12      -0.1603      2.00000
     13      -0.1601      2.00000
     14       0.7117      2.00000
     15       1.0496      2.00000
     16       1.6579      2.00000
     17       1.6588      2.00000
     18       1.7181      2.00000
     19       2.3721      2.00000
     20       2.3730      2.00000
     21       2.4286      2.00000
     22       2.7335      2.00000
     23       2.7346      2.00000
     24       3.0164      2.00000
     25       3.3597      2.00000
     26       3.4664      2.00000
     27       3.7389      2.00000
     28       3.7403      2.00000
     29       3.7802      2.00000
     30       4.3409      2.00000
     31       4.4003      2.00000
     32       4.8698      2.00000
     33       7.0004      0.00000
     34       7.4862      0.00000
     35       7.7762      0.00000
     36       8.0234      0.00000
     37       8.0236      0.00000
     38       8.2906      0.00000
     39       8.4942      0.00000
     40       8.4962      0.00000
     41       8.5336      0.00000
     42       9.1611      0.00000
     43       9.1631      0.00000
     44       9.2789      0.00000

 k-point    15 :       0.0000    0.5000    0.2500
  band No.  band energies     occupation 
      1      -5.4640      2.00000
      2      -4.9648      2.00000
      3      -4.4318      2.00000
      4      -4.0187      2.00000
      5      -4.0127      2.00000
      6      -3.3277      2.00000
      7      -2.7930      2.00000
      8      -2.7876      2.00000
      9      -1.2521      2.00000
     10      -1.2441      2.00000
     11      -0.9464      2.00000
     12      -0.1646      2.00000
     13      -0.1550      2.00000
     14       0.7147      2.00000
     15       1.0472      2.00000
     16       1.6557      2.00000
     17       1.6583      2.00000
     18       1.7162      2.00000
     19       2.3681      2.00000
     20       2.3734      2.00000
     21       2.4250      2.00000
     22       2.7323      2.00000
     23       2.7374      2.00000
     24       3.0131      2.00000
     25       3.3619      2.00000
     26       3.4667      2.00000
     27       3.7392      2.00000
     28       3.7428      2.00000
     29       3.7805      2.00000
     30       4.3404      2.00000
     31       4.4052      2.00000
     32       4.8693      2.00000
     33       7.0007      0.00000
     34       7.4862      0.00000
     35       7.7763      0.00000
     36       8.0227      0.00000
     37       8.0291      0.00000
     38       8.2914      0.00000
     39       8.4928      0.00000
     40       8.5003      0.00000
     41       8.5337      0.00000
     42       9.1616      0.00000
     43       9.1646      0.00000
     44       9.2654      0.00000

 k-point    16 :       0.2500    0.5000    0.2500
  band No.  band energies     occupation 
      1      -5.6617      2.00000
      2      -4.6670      2.00000
      3      -4.6611      2.00000
      4      -3.6483      2.00000
      5      -3.6436      2.00000
      6      -3.3836      2.00000
      7      -3.3786      2.00000
      8      -2.5320      2.00000
      9      -1.5394      2.00000
     10      -1.0814      2.00000
     11      -1.0765      2.00000
     12      -0.2986      2.00000
     13      -0.2941      2.00000
     14       0.3962      2.00000
     15       0.4017      2.00000
     16       1.4229      2.00000
     17       2.2351      2.00000
     18       2.2398      2.00000
     19       2.3373      2.00000
     20       2.3396      2.00000
     21       2.9268      2.00000
     22       2.9322      2.00000
[...]
     26       3.0998      2.00000
     27       3.1047      2.00000
     28       3.1058      2.00000
     29       4.2241      2.00000
     30       4.2293      2.00000
     31       4.2295      2.00000
     32       4.2348      2.00000
     33       8.0702      0.00000
     34       8.0738      0.00000
     35       8.0755      0.00000
     36       8.0789      0.00000
     37       8.4916      0.00000
     38       8.4954      0.00000
     39       8.4968      0.00000
     40       8.5006      0.00000
     41       9.4611      0.00000
     42       9.4631      0.00000
     43       9.4644      0.00000
     44       9.4664      0.00000

 k-point    19 :       0.0000   -0.2500    0.2500
  band No.  band energies     occupation 
      1      -5.6618      2.00000
      2      -4.6644      2.00000
      3      -4.6643      2.00000
      4      -3.6485      2.00000
      5      -3.6422      2.00000
      6      -3.3825      2.00000
      7      -3.3781      2.00000
      8      -2.5342      2.00000
      9      -1.5365      2.00000
     10      -1.0856      2.00000
     11      -1.0765      2.00000
     12      -0.3027      2.00000
     13      -0.2938      2.00000
     14       0.4001      2.00000
     15       0.4001      2.00000
     16       1.4241      2.00000
     17       2.2394      2.00000
     18       2.2401      2.00000
     19       2.3375      2.00000
     20       2.3396      2.00000
     21       2.9291      2.00000
     22       2.9333      2.00000
     23       2.9565      2.00000
     24       3.2525      2.00000
     25       3.5145      2.00000
     26       3.5204      2.00000
     27       3.8212      2.00000
     28       3.8212      2.00000
     29       4.0389      2.00000
     30       4.0754      2.00000
     31       4.0763      2.00000
     32       5.3415      2.00000
     33       6.8632      0.00000
     34       7.5827      0.00000
     35       7.5901      0.00000
     36       7.8606      0.00000
     37       7.8608      0.00000
     38       8.2882      0.00000
     39       8.2900      0.00000
     40       8.6049      0.00000
     41       8.6579      0.00000
     42       8.6584      0.00000
     43       8.7417      0.00000
     44       8.7791      0.00000

 k-point    20 :       0.2500   -0.2500    0.2500
  band No.  band energies     occupation 
      1      -5.4640      2.00000
      2      -4.9646      2.00000
      3      -4.4315      2.00000
      4      -4.0187      2.00000
      5      -4.0140      2.00000
      6      -3.3258      2.00000
      7      -2.7932      2.00000
      8      -2.7884      2.00000
      9      -1.2493      2.00000
     10      -1.2452      2.00000
     11      -0.9506      2.00000
     12      -0.1600      2.00000
     13      -0.1551      2.00000
     14       0.7129      2.00000
     15       1.0462      2.00000
     16       1.6557      2.00000
     17       1.6574      2.00000
     18       1.7165      2.00000
     19       2.3700      2.00000
     20       2.3736      2.00000
     21       2.4259      2.00000
     22       2.7338      2.00000
     23       2.7364      2.00000
     24       3.0131      2.00000
     25       3.3605      2.00000
     26       3.4683      2.00000
     27       3.7346      2.00000
     28       3.7415      2.00000
     29       3.7823      2.00000
     30       4.3430      2.00000
     31       4.4011      2.00000
     32       4.8726      2.00000
     33       7.0019      0.00000
     34       7.4885      0.00000
     35       7.7770      0.00000
     36       8.0225      0.00000
     37       8.0269      0.00000
     38       8.2922      0.00000
     39       8.4941      0.00000
     40       8.4991      0.00000
     41       8.5322      0.00000
     42       9.1566      0.00000
     43       9.1641      0.00000
     44       9.2690      0.00000

 k-point    21 :       0.5000   -0.2500    0.2500
  band No.  band energies     occupation 
      1      -4.8930      2.00000
      2      -4.8870      2.00000
      3      -4.8860      2.00000
      4      -4.8800      2.00000
      5      -3.1391      2.00000
      6      -3.1353      2.00000
      7      -3.1336      2.00000
      8      -3.1298      2.00000
      9      -0.8960      2.00000
     10      -0.8905      2.00000
     11      -0.8892      2.00000
     12      -0.8837      2.00000
     13       1.3568      2.00000
     14       1.3614      2.00000
     15       1.3625      2.00000
     16       1.3669      2.00000
     17       1.4920      2.00000
     18       1.4932      2.00000
     19       1.4957      2.00000
     20       1.4972      2.00000
     21       2.9733      2.00000
     22       2.9745      2.00000
     23       2.9757      2.00000
     24       2.9768      2.00000
     25       3.0988      2.00000
     26       3.1011      2.00000
     27       3.1033      2.00000
     28       3.1057      2.00000
     29       4.2223      2.00000
     30       4.2282      2.00000
     31       4.2306      2.00000
     32       4.2366      2.00000
     33       8.0710      0.00000
     34       8.0745      0.00000
     35       8.0747      0.00000
     36       8.0782      0.00000
     37       8.4920      0.00000
     38       8.4952      0.00000
     39       8.4969      0.00000
     40       8.5002      0.00000
     41       9.4610      0.00000
     42       9.4619      0.00000
     43       9.4657      0.00000
     44       9.4665      0.00000

 k-point    22 :       0.0000    0.5000    0.5000
  band No.  band energies     occupation 
      1      -5.1292      2.00000
      2      -5.1291      2.00000
      3      -4.1927      2.00000
      4      -4.1862      2.00000
      5      -4.1862      2.00000
      6      -4.1798      2.00000
      7      -1.9703      2.00000
      8      -1.9642      2.00000
      9      -1.9642      2.00000
     10      -1.9581      2.00000
     11       0.1846      2.00000
     12       0.1895      2.00000
     13       0.1895      2.00000
     14       0.1944      2.00000
     15       1.8611      2.00000
     16       1.8632      2.00000
     17       1.8647      2.00000
     18       1.8669      2.00000
     19       1.9543      2.00000
     20       1.9567      2.00000
     21       1.9569      2.00000
     22       1.9589      2.00000
     23       2.1133      2.00000
     24       2.1136      2.00000
     25       3.7799      2.00000
     26       3.7800      2.00000
     27       3.7800      2.00000
     28       3.7801      2.00000
     29       4.3238      2.00000
     30       4.3274      2.00000
     31       4.3275      2.00000
     32       4.3311      2.00000
     33       6.7811      0.00000
     34       6.7812      0.00000
     35       8.0681      0.00000
     36       8.0697      0.00000
     37       8.0698      0.00000
     38       8.0715      0.00000
     39       8.7667      0.00000
     40       8.7667      0.00000
     41       9.8955      0.00000
     42       9.9002      0.00000
     43       9.9020      0.00000
     44       9.9067      0.00000

 k-point    23 :       0.2500    0.5000    0.5000
  band No.  band energies     occupation 
      1      -5.4638      2.00000
      2      -4.9645      2.00000
      3      -4.4321      2.00000
      4      -4.0158      2.00000
      5      -4.0157      2.00000
      6      -3.3289      2.00000
      7      -2.7904      2.00000
      8      -2.7904      2.00000
      9      -1.2477      2.00000
     10      -1.2475      2.00000
     11      -0.9433      2.00000
     12      -0.1595      2.00000
     13      -0.1593      2.00000
     14       0.7176      2.00000
     15       1.0450      2.00000
     16       1.6552      2.00000
     17       1.6563      2.00000
     18       1.7139      2.00000
     19       2.3684      2.00000
     20       2.3698      2.00000
     21       2.4211      2.00000
     22       2.7352      2.00000
     23       2.7363      2.00000
     24       3.0099      2.00000
     25       3.3641      2.00000
     26       3.4668      2.00000
     27       3.7416      2.00000
     28       3.7434      2.00000
     29       3.7808      2.00000
     30       4.3401      2.00000
     31       4.4099      2.00000
     32       4.8686      2.00000
     33       7.0011      0.00000
     34       7.4864      0.00000
     35       7.7765      0.00000
     36       8.0282      0.00000
     37       8.0284      0.00000
     38       8.2923      0.00000
     39       8.4960      0.00000
     40       8.4990      0.00000
     41       8.5345      0.00000
     42       9.1627      0.00000
     43       9.1640      0.00000
     44       9.2613      0.00000

 k-point    24 :       0.5000    0.5000    0.5000
  band No.  band energies     occupation 
      1      -5.4103      2.00000
      2      -5.4034      2.00000
      3      -3.5355      2.00000
      4      -3.5266      2.00000
      5      -3.5262      2.00000
      6      -3.5247      2.00000
      7      -3.5243      2.00000
      8      -3.5180      2.00000
      9      -0.6980      2.00000
     10      -0.6971      2.00000
     11      -0.6969      2.00000
     12      -0.6945      2.00000
     13      -0.6935      2.00000
     14      -0.6844      2.00000
     15       1.7367      2.00000
     16       1.7421      2.00000
     17       2.1517      2.00000
     18       2.1592      2.00000
     19       2.1616      2.00000
     20       2.1641      2.00000
     21       2.1654      2.00000
     22       2.1656      2.00000
     23       3.4654      2.00000
     24       3.4659      2.00000
     25       3.4675      2.00000
     26       3.4707      2.00000
     27       3.4729      2.00000
     28       3.4782      2.00000
     29       4.8829      2.00000
     30       4.8830      2.00000
     31       4.8859      2.00000
     32       4.8952      2.00000
     33       7.1688      0.00000
     34       7.1697      0.00000
     35       7.1704      0.00000
     36       7.1718      0.00000
     37       7.1786      0.00000
     38       7.1791      0.00000
     39       7.5933      0.00000
     40       7.6006      0.00000
     41       9.1204      0.00000
     42       9.1204      0.00000
     43       9.1215      0.00000
     44       9.1307      0.00000


--------------------------------------------------------------------------------------------------------


 soft charge-density along one line, spin component           1
         0         1         2         3         4         5         6         7         8         9
 total charge-density along one line
 
 pseudopotential strength for first ion, spin component:           1
 18.435  25.721   0.000   0.000   0.000   0.000   0.000   0.000
 25.721  35.890   0.000   0.000   0.000   0.000   0.000   0.000
  0.000   0.000   4.181   0.000   0.000   7.790   0.000   0.000
  0.000   0.000   0.000   4.181   0.000   0.000   7.790   0.000
  0.000   0.000   0.000   0.000   4.181   0.000   0.000   7.790
  0.000   0.000   7.790   0.000   0.000  14.528   0.000   0.000
  0.000   0.000   0.000   7.790   0.000   0.000  14.528   0.000
  0.000   0.000   0.000   0.000   7.790   0.000   0.000  14.528
 total augmentation occupancy for first ion, spin component:           1
  5.543  -2.071   0.014   0.014   0.000  -0.005  -0.005  -0.000
 -2.071   0.890  -0.007  -0.007  -0.000   0.002   0.002   0.000
  0.014  -0.007   2.909   0.000   0.016  -0.650  -0.000  -0.005
  0.014  -0.007   0.000   2.909   0.016  -0.000  -0.650  -0.005
  0.000  -0.000   0.016   0.016   2.910  -0.005  -0.005  -0.650
 -0.005   0.002  -0.650  -0.000  -0.005   0.154   0.000   0.001
 -0.005   0.002  -0.000  -0.650  -0.005   0.000   0.154   0.001
 -0.000   0.000  -0.005  -0.005  -0.650   0.001   0.001   0.154


------------------------ aborting loop because EDIFF is reached ----------------------------------------


    CHARGE:  cpu time    0.3125: real time    0.3133
    FORLOC:  cpu time    0.0156: real time    0.0156
    FORNL :  cpu time    1.9383: real time    1.9422
    STRESS:  cpu time    3.2799: real time    3.2878
    FORCOR:  cpu time    0.1201: real time    0.1204
    FORHAR:  cpu time    0.0334: real time    0.0335
    MIXING:  cpu time    0.0052: real time    0.0052
    OFIELD:  cpu time    0.0000: real time    0.0000

  FORCE on cell =-STRESS in cart. coord.  units (eV):
  Direction    XX          YY          ZZ          XY          YZ          ZX
  --------------------------------------------------------------------------------------
  Alpha Z    26.38203    26.38203    26.38203
  Ewald    -605.46464  -605.46920  -605.46920     0.54837     0.00156     0.54837
  Hartree    40.44704    40.44630    40.44630     0.06259    -0.00016     0.06259
  E(xc)    -202.04632  -202.04627  -202.04627    -0.00471    -0.00002    -0.00471
  Local    -235.97812  -235.97296  -235.97296    -0.57872    -0.00087    -0.57872
  n-local   619.69128   623.06394   616.31657     2.66750     0.00061    -2.44242
  augment   -93.14245   -93.14239   -93.14239    -0.00504    -0.00007    -0.00504
  Kinetic   450.35837   455.02540   445.69169     4.27261     0.00006    -4.41460
  Fock        0.00000     0.00000     0.00000     0.00000     0.00000     0.00000
  -------------------------------------------------------------------------------------
  Total       0.24719     0.24631     0.24631     0.06404     0.00108     0.06404
  in kB       1.21243     1.20810     1.20810     0.31412     0.00531     0.31412
  external pressure =        1.21 kB  Pullay stress =        0.00 kB


 VOLUME and BASIS-vectors are now :
 -----------------------------------------------------------------------------
  energy-cutoff  :      500.00
  volume of cell :      326.65
      direct lattice vectors                 reciprocal lattice vectors
     0.000000000  5.466198844  5.466198844    -0.091471243  0.091471243  0.091471243
     5.466198844  0.000000000  5.466198844     0.091471243 -0.091471243  0.091471243
     5.466198844  5.466198844  0.000000000     0.091471243  0.091471243 -0.091471243

  length of vectors
     7.730372539  7.730372539  7.730372539     0.158432839  0.158432839  0.158432839


 FORCES acting on ions
    electron-ion (+dipol)            ewald-force                    non-local-force                 convergence-correction
 -----------------------------------------------------------------------------------------------
   0.469E-02 0.337E+00 0.337E+00   -.396E-02 -.313E+00 -.313E+00   -.228E-02 -.118E+00 -.118E+00   0.187E-06 0.209E-05 0.209E-05
   0.120E-03 -.112E+00 -.112E+00   0.000E+00 0.115E+00 0.115E+00   -.105E-03 0.357E-02 0.357E-02   0.497E-06 -.227E-05 -.227E-05
   -.691E-01 0.812E-02 -.424E-01   0.721E-01 -.223E-01 0.425E-01   0.514E-03 0.812E-02 0.301E-02   -.185E-05 0.950E-06 -.636E-06
   0.692E-01 -.424E-01 0.809E-02   -.721E-01 0.425E-01 -.223E-01   -.558E-03 0.305E-02 0.815E-02   0.181E-05 -.338E-06 0.335E-07
   -.691E-01 -.424E-01 0.812E-02   0.721E-01 0.425E-01 -.223E-01   0.514E-03 0.301E-02 0.812E-02   -.185E-05 -.636E-06 0.950E-06
   0.692E-01 0.809E-02 -.424E-01   -.721E-01 -.223E-01 0.425E-01   -.558E-03 0.815E-02 0.305E-02   0.181E-05 0.335E-07 -.338E-06
   -.317E-04 0.268E-01 0.268E-01   -.266E-14 -.296E-01 -.296E-01   0.232E-04 0.249E-02 0.249E-02   -.545E-06 0.141E-05 0.141E-05
   0.250E-05 -.182E-01 -.182E-01   -.222E-14 0.209E-01 0.209E-01   0.160E-05 -.177E-02 -.177E-02   -.185E-06 -.127E-05 -.127E-05
   0.389E-01 -.378E-02 -.378E-02   -.337E-01 0.411E-02 0.411E-02   -.339E-02 -.296E-03 -.296E-03   0.140E-05 0.961E-07 0.961E-07
   -.389E-01 -.370E-02 -.370E-02   0.336E-01 0.402E-02 0.402E-02   0.339E-02 -.289E-03 -.289E-03   -.199E-05 -.241E-06 -.241E-06
   0.186E-03 -.425E-01 -.427E-01   -.191E-03 0.376E-01 0.379E-01   0.183E-05 0.310E-02 0.310E-02   -.315E-06 -.226E-05 -.124E-05
   -.874E-03 0.124E+00 0.125E+00   0.671E-03 -.101E+00 -.102E+00   0.319E-03 -.136E-01 -.143E-01   0.245E-06 0.140E-05 0.210E-05
   0.186E-03 -.427E-01 -.425E-01   -.191E-03 0.379E-01 0.376E-01   0.183E-05 0.310E-02 0.310E-02   -.315E-06 -.124E-05 -.226E-05
   -.874E-03 0.125E+00 0.124E+00   0.671E-03 -.102E+00 -.101E+00   0.319E-03 -.143E-01 -.136E-01   0.245E-06 0.210E-05 0.140E-05
   0.284E+00 -.161E+00 -.161E+00   -.244E+00 0.143E+00 0.143E+00   -.697E-01 0.561E-01 0.561E-01   0.201E-05 0.449E-06 0.449E-06
   -.287E+00 -.161E+00 -.161E+00   0.247E+00 0.144E+00 0.144E+00   0.716E-01 0.573E-01 0.573E-01   -.112E-05 -.285E-06 -.285E-06
 -----------------------------------------------------------------------------------------------
   -.121E-03 0.831E-06 0.831E-06   0.107E-13 0.730E-14 -.705E-14   0.121E-03 -.458E-06 -.458E-06   0.335E-07 -.385E-08 -.385E-08
 
 
 POSITION                                       TOTAL-FORCE (eV/Angst)
 -----------------------------------------------------------------------------------
      4.78292      4.79000      4.79000        -0.001550     -0.093820     -0.093820
      4.78292      7.51602      7.51602         0.000016      0.006652      0.006652
      7.51602      4.78292      7.51602         0.003497     -0.006091      0.003151
      7.51602      7.51602     10.24912        -0.003520      0.003135     -0.006093
      7.51602      7.51602      4.78292         0.003497      0.003151     -0.006091
      7.51602     10.24912      7.51602        -0.003520     -0.006093      0.003135
     10.24912      7.51602      7.51602        -0.000009     -0.000365     -0.000365
     10.24912     10.24912     10.24912         0.000004      0.000900      0.000900
      0.68327      0.68327      0.68327         0.001818      0.000032      0.000032
      0.68327      3.41637      3.41637        -0.001818      0.000026      0.000026
      3.41637      0.68327      3.41637        -0.000004     -0.001794     -0.001784
      3.41637      3.41637      6.14947         0.000116      0.008697      0.008563
      3.41637      3.41637      0.68327        -0.000004     -0.001784     -0.001794
      3.41637      6.14947      3.41637         0.000116      0.008563      0.008697
      6.14947      3.41637      3.41637        -0.030090      0.038891      0.038891
      6.14947      6.14947      6.14947         0.031449      0.039899      0.039899
 -----------------------------------------------------------------------------------
    total drift:                                0.000000      0.000000      0.000000


--------------------------------------------------------------------------------------------------------



  FREE ENERGIE OF THE ION-ELECTRON SYSTEM (eV)
  ---------------------------------------------------
  free  energy   TOTEN  =       -86.76784806 eV

  energy  without entropy=      -86.76784806  energy(sigma->0) =      -86.76784806
 


--------------------------------------------------------------------------------------------------------


    POTLOK:  cpu time    0.1797: real time    0.1803


--------------------------------------------------------------------------------------------------------


     LOOP+:  cpu time   75.9743: real time   76.2183
    4ORBIT:  cpu time    0.0000: real time    0.0000

 total amount of memory used by VASP MPI-rank0   157438. kBytes
=======================================================================

   base      :      30000. kBytes
   nonl-proj :      15002. kBytes
   fftplans  :      52349. kBytes
   grid      :      24134. kBytes
   one-center:         49. kBytes
   wavefun   :      35904. kBytes
 
  
  
 General timing and accounting informations for this job:
 ========================================================
  
                  Total CPU time used (sec):       78.056
                            User time (sec):       77.464
                          System time (sec):        0.592
                         Elapsed time (sec):       79.098
  
                   Maximum memory used (kb):      415592.
                   Average memory used (kb):           0.
  
                          Minor page faults:       134969
                          Major page faults:            0
                 Voluntary context switches:         3342
