unknown system                          
           1
     0.000000    5.466199    5.466199
     5.466199    0.000000    5.466199
     5.466199    5.466199    0.000000
   Si
  16
Direct configuration=     1
   0.43879360  0.43750000  0.43750000
   0.93750000  0.43750000  0.43750000
   0.43750000  0.93750000  0.43750000
   0.93750000  0.93750000  0.43750000
   0.43750000  0.43750000  0.93750000
   0.93750000  0.43750000  0.93750000
   0.43750000  0.93750000  0.93750000
   0.93750000  0.93750000  0.93750000
   0.06250000  0.06250000  0.06250000
   0.56250000  0.06250000  0.06250000
   0.06250000  0.56250000  0.06250000
   0.56250000  0.56250000  0.06250000
   0.06250000  0.06250000  0.56250000
   0.56250000  0.06250000  0.56250000
   0.06250000  0.56250000  0.56250000
   0.56250000  0.56250000  0.56250000
